# vtk DataFile Version 4.0
vtk output
ASCII
DATASET UNSTRUCTURED_GRID
POINTS 388 float
2.2500000e-01 0.0000000e+00 0.0000000e+00 
2.2449107e-01 0.0000000e+00 3.0050400e-05 
2.2448862e-01 0.0000000e+00 1.7110700e-04 
2.2391301e-01 0.0000000e+00 6.4182500e-05 
2.2390778e-01 0.0000000e+00 3.6545210e-04 
2.2325797e-01 0.0000000e+00 1.0286040e-04 
2.2324960e-01 0.0000000e+00 5.8567700e-04 
2.2500000e-01 -2.0000000e-03 0.0000000e+00 
2.2449107e-01 -2.0000000e-03 3.0050400e-05 
2.2448862e-01 -2.0000000e-03 1.7110700e-04 
2.2391301e-01 -2.0000000e-03 6.4182500e-05 
2.2390778e-01 -2.0000000e-03 3.6545210e-04 
2.2251765e-01 0.0000000e+00 1.4657370e-04 
2.2250574e-01 0.0000000e+00 8.3456920e-04 
2.2325797e-01 -2.0000000e-03 1.0286040e-04 
2.2324960e-01 -2.0000000e-03 5.8567700e-04 
2.2251765e-01 -2.0000000e-03 1.4657370e-04 
2.2250574e-01 -2.0000000e-03 8.3456920e-04 
2.2168344e-01 0.0000000e+00 1.9583050e-04 
2.2166755e-01 0.0000000e+00 1.1150213e-03 
2.2168344e-01 -2.0000000e-03 1.9583050e-04 
2.2166755e-01 -2.0000000e-03 1.1150213e-03 
2.2074660e-01 0.0000000e+00 2.5114740e-04 
2.2072626e-01 0.0000000e+00 1.4299735e-03 
2.2074660e-01 -2.0000000e-03 2.5114740e-04 
2.2072626e-01 -2.0000000e-03 1.4299735e-03 
2.1969847e-01 0.0000000e+00 3.1303560e-04 
2.1967316e-01 0.0000000e+00 1.7823360e-03 
2.1969847e-01 -2.0000000e-03 3.1303560e-04 
2.1967316e-01 -2.0000000e-03 1.7823360e-03 
2.1853077e-01 0.0000000e+00 3.8198350e-04 
2.1853077e-01 -2.0000000e-03 3.8198350e-04 
2.1849994e-01 0.0000000e+00 2.1748901e-03 
2.1849994e-01 -2.0000000e-03 2.1748901e-03 
2.1723599e-01 0.0000000e+00 4.5843550e-04 
2.1723599e-01 -2.0000000e-03 4.5843550e-04 
2.1719904e-01 0.0000000e+00 2.6101664e-03 
2.1719904e-01 -2.0000000e-03 2.6101664e-03 
2.1580776e-01 0.0000000e+00 5.4276720e-04 
2.1580776e-01 -2.0000000e-03 5.4276720e-04 
2.1576406e-01 0.0000000e+00 3.0903024e-03 
2.1576406e-01 -2.0000000e-03 3.0903024e-03 
2.1424137e-01 0.0000000e+00 6.3525640e-04 
2.1424137e-01 -2.0000000e-03 6.3525640e-04 
2.1419028e-01 0.0000000e+00 3.6168826e-03 
2.1419028e-01 -2.0000000e-03 3.6168826e-03 
2.1253427e-01 0.0000000e+00 7.3605430e-04 
2.1253427e-01 -2.0000000e-03 7.3605430e-04 
2.1247512e-01 0.0000000e+00 4.1907675e-03 
2.1247512e-01 -2.0000000e-03 4.1907675e-03 
2.1068657e-01 0.0000000e+00 8.4515420e-04 
2.1068657e-01 -2.0000000e-03 8.4515420e-04 
2.1061868e-01 0.0000000e+00 4.8119221e-03 
2.1061868e-01 -2.0000000e-03 4.8119221e-03 
2.0870151e-01 0.0000000e+00 9.6236450e-04 
2.0870151e-01 -2.0000000e-03 9.6236450e-04 
2.0862422e-01 0.0000000e+00 5.4792579e-03 
2.0862422e-01 -2.0000000e-03 5.4792579e-03 
2.0658586e-01 0.0000000e+00 1.0872857e-03 
2.0658586e-01 -2.0000000e-03 1.0872857e-03 
2.0649854e-01 0.0000000e+00 6.1905035e-03 
2.0649854e-01 -2.0000000e-03 6.1905035e-03 
2.0435014e-01 0.0000000e+00 1.2192962e-03 
2.0435014e-01 -2.0000000e-03 1.2192962e-03 
2.0425218e-01 0.0000000e+00 6.9421227e-03 
2.0425218e-01 -2.0000000e-03 6.9421227e-03 
2.0200871e-01 0.0000000e+00 1.3575488e-03 
2.0200871e-01 -2.0000000e-03 1.3575488e-03 
2.0189957e-01 0.0000000e+00 7.7292963e-03 
2.0189957e-01 -2.0000000e-03 7.7292963e-03 
1.9957956e-01 0.0000000e+00 1.5009810e-03 
1.9957956e-01 -2.0000000e-03 1.5009810e-03 
1.9945876e-01 0.0000000e+00 8.5459793e-03 
1.9945876e-01 -2.0000000e-03 8.5459793e-03 
1.9708391e-01 0.0000000e+00 1.6483401e-03 
1.9708391e-01 -2.0000000e-03 1.6483401e-03 
1.9694655e-01 0.0000000e+00 9.3714164e-03 
1.9694655e-01 -2.0000000e-03 9.3714161e-03 
1.9451177e-01 0.0000000e+00 1.5786032e-03 
1.9451177e-01 -2.0000000e-03 1.5786032e-03 
1.9444984e-01 0.0000000e+00 9.4997425e-03 
1.9444984e-01 -2.0000000e-03 9.4997423e-03 
1.9168266e-01 0.0000000e+00 1.4936791e-03 
1.9168266e-01 -2.0000000e-03 1.4936791e-03 
1.9170347e-01 0.0000000e+00 9.6409013e-03 
1.9170347e-01 -2.0000000e-03 9.6409011e-03 
1.8857063e-01 0.0000000e+00 1.4002627e-03 
1.8857063e-01 -2.0000000e-03 1.4002627e-03 
1.8868245e-01 0.0000000e+00 9.7961760e-03 
1.8868245e-01 -2.0000000e-03 9.7961758e-03 
1.8514741e-01 0.0000000e+00 1.2975046e-03 
1.8514741e-01 -2.0000000e-03 1.2975046e-03 
1.8535934e-01 0.0000000e+00 9.9669781e-03 
1.8535934e-01 -2.0000000e-03 9.9669779e-03 
1.8169597e-01 0.0000000e+00 1.1938996e-03 
1.8169597e-01 -2.0000000e-03 1.1938996e-03 
1.8170391e-01 0.0000000e+00 1.0154860e-02 
1.8170391e-01 -2.0000000e-03 1.0154860e-02 
1.7824453e-01 0.0000000e+00 1.0902946e-03 
1.7824453e-01 -2.0000000e-03 1.0902946e-03 
1.7804456e-01 0.0000000e+00 1.0342945e-02 
1.7804456e-01 -2.0000000e-03 1.0342945e-02 
1.7479309e-01 0.0000000e+00 9.8668960e-04 
1.7479309e-01 -2.0000000e-03 9.8668960e-04 
1.7438520e-01 0.0000000e+00 1.0531029e-02 
1.7438520e-01 -2.0000000e-03 1.0531029e-02 
1.7134165e-01 0.0000000e+00 8.8308460e-04 
1.7134165e-01 -2.0000000e-03 8.8308460e-04 
1.7072585e-01 0.0000000e+00 1.0719113e-02 
1.7072585e-01 -2.0000000e-03 1.0719113e-02 
1.6789021e-01 0.0000000e+00 7.7947960e-04 
1.6789021e-01 -2.0000000e-03 7.7947960e-04 
1.6706649e-01 0.0000000e+00 1.0907198e-02 
1.6706649e-01 -2.0000000e-03 1.0907198e-02 
1.6443877e-01 0.0000000e+00 6.7587460e-04 
1.6443877e-01 -2.0000000e-03 6.7587470e-04 
1.6340714e-01 0.0000000e+00 1.1095282e-02 
1.6340714e-01 -2.0000000e-03 1.1095282e-02 
1.6098733e-01 0.0000000e+00 5.7226970e-04 
1.6098733e-01 -2.0000000e-03 5.7226970e-04 
1.5974778e-01 0.0000000e+00 1.1283366e-02 
1.5974778e-01 -2.0000000e-03 1.1283366e-02 
1.5753589e-01 0.0000000e+00 4.6866470e-04 
1.5753589e-01 -2.0000000e-03 4.6866470e-04 
1.5608842e-01 0.0000000e+00 1.1471451e-02 
1.5608842e-01 -2.0000000e-03 1.1471450e-02 
1.5408445e-01 0.0000000e+00 3.6505970e-04 
1.5408445e-01 -2.0000000e-03 3.6505970e-04 
1.5242907e-01 0.0000000e+00 1.1659535e-02 
1.5242907e-01 -2.0000000e-03 1.1659535e-02 
1.5063301e-01 0.0000000e+00 2.6145470e-04 
1.5063301e-01 -2.0000000e-03 2.6145470e-04 
1.4876971e-01 0.0000000e+00 1.1847619e-02 
1.4876971e-01 -2.0000000e-03 1.1847619e-02 
1.4718157e-01 0.0000000e+00 1.5784970e-04 
1.4718157e-01 -2.0000000e-03 1.5784970e-04 
1.4511036e-01 0.0000000e+00 1.2035704e-02 
1.4511036e-01 -2.0000000e-03 1.2035703e-02 
1.4373013e-01 0.0000000e+00 5.4244700e-05 
1.4373013e-01 -2.0000000e-03 5.4244700e-05 
1.4145100e-01 0.0000000e+00 1.2223788e-02 
1.4145100e-01 -2.0000000e-03 1.2223788e-02 
1.4027869e-01 0.0000000e+00 -4.9360300e-05 
1.4027869e-01 -2.0000000e-03 -4.9360300e-05 
1.3779165e-01 0.0000000e+00 1.2411872e-02 
1.3779165e-01 -2.0000000e-03 1.2411872e-02 
1.3682725e-01 0.0000000e+00 -1.5296530e-04 
1.3682725e-01 -2.0000000e-03 -1.5296530e-04 
1.3337581e-01 0.0000000e+00 -2.5657020e-04 
1.3337581e-01 -2.0000000e-03 -2.5657020e-04 
1.3413229e-01 0.0000000e+00 1.2599957e-02 
1.3413229e-01 -2.0000000e-03 1.2599956e-02 
1.2992437e-01 0.0000000e+00 -3.6017520e-04 
1.2992437e-01 -2.0000000e-03 -3.6017520e-04 
1.3047294e-01 0.0000000e+00 1.2788041e-02 
1.3047294e-01 -2.0000000e-03 1.2788041e-02 
1.2647293e-01 0.0000000e+00 -4.6378020e-04 
1.2647293e-01 -2.0000000e-03 -4.6378020e-04 
1.2681358e-01 0.0000000e+00 1.2976125e-02 
1.2681358e-01 -2.0000000e-03 1.2976125e-02 
1.2302149e-01 0.0000000e+00 -5.6738520e-04 
1.2302149e-01 -2.0000000e-03 -5.6738520e-04 
1.2315422e-01 0.0000000e+00 1.3164209e-02 
1.2315422e-01 -2.0000000e-03 1.3164209e-02 
1.1957005e-01 0.0000000e+00 -6.7099020e-04 
1.1957005e-01 -2.0000000e-03 -6.7099020e-04 
1.1949487e-01 0.0000000e+00 1.3352294e-02 
1.1949487e-01 -2.0000000e-03 1.3352294e-02 
1.1611861e-01 0.0000000e+00 -7.7459520e-04 
1.1611861e-01 -2.0000000e-03 -7.7459520e-04 
1.1583551e-01 0.0000000e+00 1.3540378e-02 
1.1583551e-01 -2.0000000e-03 1.3540378e-02 
1.1266717e-01 0.0000000e+00 -8.7820020e-04 
1.1266717e-01 -2.0000000e-03 -8.7820020e-04 
1.1217616e-01 0.0000000e+00 1.3728462e-02 
1.1217616e-01 -2.0000000e-03 1.3728462e-02 
1.0921573e-01 0.0000000e+00 -9.8180510e-04 
1.0921573e-01 -2.0000000e-03 -9.8180510e-04 
1.0851680e-01 0.0000000e+00 1.3916547e-02 
1.0851680e-01 -2.0000000e-03 1.3916547e-02 
1.0576429e-01 0.0000000e+00 -1.0854101e-03 
1.0576429e-01 -2.0000000e-03 -1.0854101e-03 
1.0485745e-01 0.0000000e+00 1.4104631e-02 
1.0485745e-01 -2.0000000e-03 1.4104631e-02 
1.0231285e-01 0.0000000e+00 -1.1890151e-03 
1.0231285e-01 -2.0000000e-03 -1.1890151e-03 
1.0119809e-01 0.0000000e+00 1.4292715e-02 
1.0119809e-01 -2.0000000e-03 1.4292715e-02 
9.8861408e-02 0.0000000e+00 -1.2926201e-03 
9.8861408e-02 -2.0000000e-03 -1.2926201e-03 
9.7538735e-02 0.0000000e+00 1.4480800e-02 
9.7538735e-02 -2.0000000e-03 1.4480799e-02 
9.5409968e-02 0.0000000e+00 -1.3962251e-03 
9.5409968e-02 -2.0000000e-03 -1.3962251e-03 
9.3879379e-02 0.0000000e+00 1.4668884e-02 
9.3879379e-02 -2.0000000e-03 1.4668884e-02 
9.1958528e-02 0.0000000e+00 -1.4998301e-03 
9.1958528e-02 -2.0000000e-03 -1.4998301e-03 
9.0220024e-02 0.0000000e+00 1.4856968e-02 
9.0220024e-02 -2.0000000e-03 1.4856968e-02 
8.8507088e-02 0.0000000e+00 -1.6034351e-03 
8.8507088e-02 -2.0000000e-03 -1.6034351e-03 
8.6560668e-02 0.0000000e+00 1.5045053e-02 
8.6560668e-02 -2.0000000e-03 1.5045052e-02 
8.5055648e-02 0.0000000e+00 -1.7070400e-03 
8.5055648e-02 -2.0000000e-03 -1.7070400e-03 
8.2901313e-02 0.0000000e+00 1.5233137e-02 
8.2901313e-02 -2.0000000e-03 1.5233137e-02 
8.1604208e-02 0.0000000e+00 -1.8106450e-03 
8.1604208e-02 -2.0000000e-03 -1.8106450e-03 
7.9241957e-02 0.0000000e+00 1.5421221e-02 
7.9241957e-02 -2.0000000e-03 1.5421221e-02 
7.8152768e-02 0.0000000e+00 -1.9142500e-03 
7.8152768e-02 -2.0000000e-03 -1.9142500e-03 
7.5582602e-02 0.0000000e+00 1.5609306e-02 
7.5582602e-02 -2.0000000e-03 1.5609305e-02 
7.4701328e-02 0.0000000e+00 -2.0178550e-03 
7.4701328e-02 -2.0000000e-03 -2.0178550e-03 
7.1249888e-02 0.0000000e+00 -2.1214600e-03 
7.1249888e-02 -2.0000000e-03 -2.1214600e-03 
7.1923246e-02 0.0000000e+00 1.5797390e-02 
7.1923246e-02 -2.0000000e-03 1.5797390e-02 
6.7798448e-02 0.0000000e+00 -2.2250650e-03 
6.7798448e-02 -2.0000000e-03 -2.2250650e-03 
6.8263891e-02 0.0000000e+00 1.5985474e-02 
6.8263891e-02 -2.0000000e-03 1.5985474e-02 
[...]
POINT_DATA 388
FIELD FieldData 2
DISPLACEMENT 3 388  float
0.0000000e+00 0.0000000e+00 0.0000000e+00 
0.0000000e+00 0.0000000e+00 0.0000000e+00 
0.0000000e+00 0.0000000e+00 0.0000000e+00 
0.0000000e+00 0.0000000e+00 0.0000000e+00 
0.0000000e+00 0.0000000e+00 0.0000000e+00 
0.0000000e+00 0.0000000e+00 0.0000000e+00 
0.0000000e+00 0.0000000e+00 0.0000000e+00 
0.0000000e+00 0.0000000e+00 0.0000000e+00 
0.0000000e+00 0.0000000e+00 0.0000000e+00 
0.0000000e+00 0.0000000e+00 0.0000000e+00 
0.0000000e+00 0.0000000e+00 0.0000000e+00 
0.0000000e+00 0.0000000e+00 0.0000000e+00 
0.0000000e+00 0.0000000e+00 0.0000000e+00 
0.0000000e+00 0.0000000e+00 0.0000000e+00 
0.0000000e+00 0.0000000e+00 0.0000000e+00 
0.0000000e+00 0.0000000e+00 0.0000000e+00 
0.0000000e+00 0.0000000e+00 0.0000000e+00 
0.0000000e+00 0.0000000e+00 0.0000000e+00 
0.0000000e+00 0.0000000e+00 0.0000000e+00 
0.0000000e+00 0.0000000e+00 0.0000000e+00 
0.0000000e+00 0.0000000e+00 0.0000000e+00 
0.0000000e+00 0.0000000e+00 0.0000000e+00 
0.0000000e+00 0.0000000e+00 0.0000000e+00 
0.0000000e+00 0.0000000e+00 0.0000000e+00 
0.0000000e+00 0.0000000e+00 0.0000000e+00 
0.0000000e+00 0.0000000e+00 0.0000000e+00 
0.0000000e+00 0.0000000e+00 0.0000000e+00 
0.0000000e+00 0.0000000e+00 0.0000000e+00 
0.0000000e+00 0.0000000e+00 0.0000000e+00 
0.0000000e+00 0.0000000e+00 0.0000000e+00 
0.0000000e+00 0.0000000e+00 0.0000000e+00 
0.0000000e+00 0.0000000e+00 0.0000000e+00 
0.0000000e+00 0.0000000e+00 0.0000000e+00 
0.0000000e+00 0.0000000e+00 0.0000000e+00 
0.0000000e+00 0.0000000e+00 0.0000000e+00 
0.0000000e+00 0.0000000e+00 0.0000000e+00 
0.0000000e+00 0.0000000e+00 0.0000000e+00 
0.0000000e+00 0.0000000e+00 0.0000000e+00 
0.0000000e+00 0.0000000e+00 0.0000000e+00 
0.0000000e+00 0.0000000e+00 0.0000000e+00 
0.0000000e+00 0.0000000e+00 0.0000000e+00 
0.0000000e+00 0.0000000e+00 0.0000000e+00 
0.0000000e+00 0.0000000e+00 0.0000000e+00 
0.0000000e+00 0.0000000e+00 0.0000000e+00 
0.0000000e+00 0.0000000e+00 0.0000000e+00 
0.0000000e+00 0.0000000e+00 0.0000000e+00 
0.0000000e+00 0.0000000e+00 0.0000000e+00 
0.0000000e+00 0.0000000e+00 0.0000000e+00 
0.0000000e+00 0.0000000e+00 0.0000000e+00 
0.0000000e+00 0.0000000e+00 0.0000000e+00 
0.0000000e+00 0.0000000e+00 0.0000000e+00 
0.0000000e+00 0.0000000e+00 0.0000000e+00 
0.0000000e+00 0.0000000e+00 0.0000000e+00 
0.0000000e+00 0.0000000e+00 0.0000000e+00 
0.0000000e+00 0.0000000e+00 0.0000000e+00 
0.0000000e+00 0.0000000e+00 0.0000000e+00 
0.0000000e+00 0.0000000e+00 0.0000000e+00 
0.0000000e+00 0.0000000e+00 0.0000000e+00 
0.0000000e+00 0.0000000e+00 0.0000000e+00 
0.0000000e+00 0.0000000e+00 0.0000000e+00 
0.0000000e+00 0.0000000e+00 0.0000000e+00 
0.0000000e+00 0.0000000e+00 0.0000000e+00 
0.0000000e+00 0.0000000e+00 0.0000000e+00 
0.0000000e+00 0.0000000e+00 0.0000000e+00 
0.0000000e+00 0.0000000e+00 0.0000000e+00 
0.0000000e+00 0.0000000e+00 0.0000000e+00 
0.0000000e+00 0.0000000e+00 0.0000000e+00 
0.0000000e+00 0.0000000e+00 0.0000000e+00 
0.0000000e+00 0.0000000e+00 0.0000000e+00 
0.0000000e+00 0.0000000e+00 0.0000000e+00 
0.0000000e+00 0.0000000e+00 0.0000000e+00 
0.0000000e+00 0.0000000e+00 0.0000000e+00 
0.0000000e+00 0.0000000e+00 0.0000000e+00 
0.0000000e+00 0.0000000e+00 0.0000000e+00 
0.0000000e+00 0.0000000e+00 0.0000000e+00 
0.0000000e+00 0.0000000e+00 0.0000000e+00 
0.0000000e+00 0.0000000e+00 0.0000000e+00 
0.0000000e+00 0.0000000e+00 0.0000000e+00 
3.9460798e-05 -2.4190955e-05 6.7639637e-04 
3.9460799e-05 2.4190954e-05 6.7639637e-04 
1.4578066e-04 -2.4104626e-05 8.6805277e-04 
1.4578130e-04 2.4103520e-05 8.6805286e-04 
7.7246555e-05 -1.9392511e-05 1.4059133e-03 
7.7246556e-05 1.9392508e-05 1.4059133e-03 
2.9282986e-04 -1.9426108e-05 1.7910580e-03 
2.9283071e-04 1.9422760e-05 1.7910580e-03 
1.1257852e-04 -2.0376899e-05 2.1808377e-03 
1.1257852e-04 2.0376893e-05 2.1808377e-03 
4.3903775e-04 -2.0370481e-05 2.7676526e-03 
4.3903859e-04 2.0364214e-05 2.7676523e-03 
1.4421677e-04 -2.0164718e-05 2.9998464e-03 
1.4421677e-04 2.0164709e-05 2.9998464e-03 
5.8172145e-04 -2.0173431e-05 3.7947936e-03 
5.8172217e-04 2.0163869e-05 3.7947930e-03 
1.6880992e-04 -2.0213143e-05 3.7901017e-03 
1.6880992e-04 2.0213130e-05 3.7901017e-03 
7.1761396e-04 -2.0218865e-05 4.8673238e-03 
7.1761451e-04 2.0205836e-05 4.8673227e-03 
1.8643799e-04 -2.0202039e-05 4.5446320e-03 
1.8643799e-04 2.0202023e-05 4.5446320e-03 
8.3256403e-04 -2.0210295e-05 5.8804911e-03 
8.3256444e-04 2.0194071e-05 5.8804898e-03 
1.9747343e-04 -2.0204588e-05 5.2633667e-03 
1.9747343e-04 2.0204568e-05 5.2633667e-03 
9.2745617e-04 -2.0214106e-05 6.8327686e-03 
9.2745647e-04 2.0194994e-05 6.8327671e-03 
2.0228938e-04 -2.0204005e-05 5.9462392e-03 
2.0228938e-04 2.0203983e-05 5.9462392e-03 
1.0033364e-03 -2.0214852e-05 7.7238157e-03 
1.0033366e-03 2.0193145e-05 7.7238142e-03 
2.0125963e-04 -2.0204141e-05 6.5931865e-03 
2.0125964e-04 2.0204115e-05 6.5931865e-03 
1.0612571e-03 -2.0216148e-05 8.5533213e-03 
1.0612573e-03 2.0192106e-05 8.5533197e-03 
1.9475866e-04 -2.0204111e-05 7.2041497e-03 
1.9475866e-04 2.0204083e-05 7.2041496e-03 
1.1022750e-03 -2.0217176e-05 9.3209832e-03 
1.1022752e-03 2.0191018e-05 9.3209816e-03 
1.8316149e-04 -2.0204119e-05 7.7790737e-03 
1.8316149e-04 2.0204089e-05 7.7790737e-03 
1.1274522e-03 -2.0218153e-05 1.0026525e-02 
1.1274523e-03 2.0190055e-05 1.0026524e-02 
1.6684371e-04 -2.0204119e-05 8.3179077e-03 
1.6684371e-04 2.0204086e-05 8.3179077e-03 
1.1378549e-03 -2.0219052e-05 1.0669681e-02 
1.1378550e-03 2.0189153e-05 1.0669681e-02 
1.4618144e-04 -2.0204120e-05 8.8206042e-03 
1.4618144e-04 2.0204086e-05 8.8206042e-03 
1.1345540e-03 -2.0219902e-05 1.1250208e-02 
1.1345541e-03 2.0188304e-05 1.1250206e-02 
1.2155125e-04 -2.0204120e-05 9.2871200e-03 
1.2155125e-04 2.0204086e-05 9.2871200e-03 
1.1186244e-03 -2.0220720e-05 1.1767882e-02 
1.1186245e-03 2.0187486e-05 1.1767880e-02 
9.3330150e-05 -2.0204120e-05 9.7174158e-03 
9.3330149e-05 2.0204085e-05 9.7174158e-03 
1.0911445e-03 -2.0221521e-05 1.2222491e-02 
1.0911447e-03 2.0186685e-05 1.2222491e-02 
6.1895533e-05 -2.0204120e-05 1.0111456e-02 
6.1895532e-05 2.0204085e-05 1.0111456e-02 
1.0531963e-03 -2.0222320e-05 1.2613853e-02 
1.0531965e-03 2.0185886e-05 1.2613852e-02 
2.7625146e-05 -2.0204120e-05 1.0469209e-02 
2.7625145e-05 2.0204086e-05 1.0469209e-02 
1.0058650e-03 -2.0223129e-05 1.2941793e-02 
1.0058652e-03 2.0185077e-05 1.2941791e-02 
-9.1029589e-06 -2.0204120e-05 1.0790648e-02 
-9.1029594e-06 2.0204086e-05 1.0790648e-02 
-4.7910459e-05 -2.0204119e-05 1.1075749e-02 
-4.7910459e-05 2.0204087e-05 1.1075749e-02 
9.5023816e-04 -2.0223951e-05 1.3206161e-02 
9.5023844e-04 2.0184255e-05 1.3206160e-02 
-8.8418816e-05 -2.0204118e-05 1.1324491e-02 
-8.8418816e-05 2.0204087e-05 1.1324491e-02 
8.8740638e-04 -2.0224783e-05 1.3406825e-02 
8.8740662e-04 2.0183423e-05 1.3406823e-02 
-1.3024930e-04 -2.0204117e-05 1.1536861e-02 
-1.3024930e-04 2.0204088e-05 1.1536861e-02 
8.1846163e-04 -2.0225610e-05 1.3543671e-02 
8.1846188e-04 2.0182596e-05 1.3543669e-02 
-1.7302303e-04 -2.0204116e-05 1.1712844e-02 
-1.7302303e-04 2.0204090e-05 1.1712844e-02 
7.4449803e-04 -2.0226412e-05 1.3616604e-02 
7.4449829e-04 2.0181794e-05 1.3616601e-02 
-2.1636104e-04 -2.0204115e-05 1.1852435e-02 
-2.1636104e-04 2.0204091e-05 1.1852435e-02 
6.6661119e-04 -2.0227162e-05 1.3625545e-02 
6.6661144e-04 2.0181044e-05 1.3625542e-02 
-2.5988429e-04 -2.0204114e-05 1.1955628e-02 
-2.5988430e-04 2.0204092e-05 1.1955628e-02 
5.8589750e-04 -2.0227832e-05 1.3570440e-02 
5.8589775e-04 2.0180374e-05 1.3570437e-02 
-3.0321373e-04 -2.0204112e-05 1.2022425e-02 
-3.0321373e-04 2.0204094e-05 1.2022425e-02 
5.0345475e-04 -2.0228394e-05 1.3451249e-02 
5.0345498e-04 2.0179812e-05 1.3451246e-02 
-3.4597032e-04 -2.0204110e-05 1.2052828e-02 
-3.4597032e-04 2.0204095e-05 1.2052828e-02 
4.2038040e-04 -2.0228820e-05 1.3267950e-02 
4.2038060e-04 2.0179386e-05 1.3267946e-02 
-3.8777509e-04 -2.0204109e-05 1.2046846e-02 
-3.8777509e-04 2.0204097e-05 1.2046846e-02 
3.3777309e-04 -2.0229089e-05 1.3020542e-02 
3.3777328e-04 2.0179116e-05 1.3020538e-02 
-4.2824917e-04 -2.0204107e-05 1.2004491e-02 
-4.2824917e-04 2.0204099e-05 1.2004491e-02 
2.5673053e-04 -2.0229186e-05 1.2709042e-02 
2.5673070e-04 2.0179019e-05 1.2709039e-02 
-4.6701385e-04 -2.0204105e-05 1.1925778e-02 
-4.6701385e-04 2.0204101e-05 1.1925778e-02 
1.7835072e-04 -2.0229103e-05 1.2333486e-02 
1.7835092e-04 2.0179103e-05 1.2333483e-02 
-5.0369055e-04 -2.0204103e-05 1.1810727e-02 
-5.0369055e-04 2.0204102e-05 1.1810727e-02 
1.0373058e-04 -2.0228836e-05 1.1893930e-02 
1.0373071e-04 2.0179370e-05 1.1893926e-02 
-5.3790099e-04 -2.0204102e-05 1.1659363e-02 
-5.3790099e-04 2.0204104e-05 1.1659363e-02 
3.3965898e-05 -2.0228381e-05 1.1390448e-02 
3.3966005e-05 2.0179825e-05 1.1390444e-02 
-5.6926711e-04 -2.0204100e-05 1.1471713e-02 
-5.6926711e-04 2.0204106e-05 1.1471713e-02 
-2.9849058e-05 -2.0227732e-05 1.0823131e-02 
-2.9848924e-05 2.0180474e-05 1.0823128e-02 
-5.9741117e-04 -2.0204098e-05 1.1247807e-02 
-5.9741117e-04 2.0204108e-05 1.1247807e-02 
-8.6621567e-05 -2.0226880e-05 1.0192093e-02 
-8.6621522e-05 2.0181326e-05 1.0192088e-02 
-6.2195580e-04 -2.0204097e-05 1.0987683e-02 
-6.2195580e-04 2.0204109e-05 1.0987683e-02 
-1.3526119e-04 -2.0225806e-05 9.4974615e-03 
-1.3526120e-04 2.0182400e-05 9.4974573e-03 
-6.4252399e-04 -2.0204095e-05 1.0691378e-02 
-6.4252399e-04 2.0204110e-05 1.0691378e-02 
-1.7467981e-04 -2.0224487e-05 8.7393859e-03 
-1.7467985e-04 2.0183720e-05 8.7393828e-03 
-6.5873917e-04 -2.0204094e-05 1.0358938e-02 
-6.5873917e-04 2.0204112e-05 1.0358938e-02 
-6.7022525e-04 -2.0204093e-05 9.9904079e-03 
-6.7022526e-04 2.0204113e-05 9.9904080e-03 
-2.0379189e-04 -2.0222890e-05 7.9180347e-03 
-2.0379209e-04 2.0185314e-05 7.9180308e-03 
-6.7660666e-04 -2.0204092e-05 9.5858403e-03 
-6.7660666e-04 2.0204113e-05 9.5858403e-03 
-2.2151495e-04 -2.0220991e-05 7.0335930e-03 
-2.2151532e-04 2.0187224e-05 7.0335893e-03 
-6.7750835e-04 -2.0204092e-05 9.1452900e-03 
-6.7750835e-04 2.0204114e-05 9.1452900e-03 
-2.2677143e-04 -2.0218729e-05 6.0876069e-03 
-2.2677202e-04 2.0189437e-05 6.0876036e-03 
-6.7255590e-04 -2.0204092e-05 8.6688158e-03 
-6.7255590e-04 2.0204114e-05 8.6688157e-03 
-2.1985226e-04 -2.0216500e-05 5.1733851e-03 
-2.1985309e-04 2.0191892e-05 5.1733824e-03 
-2.0319647e-04 -2.0213575e-05 4.2976059e-03 
-2.0319756e-04 2.0193740e-05 4.2976037e-03 
-6.6137551e-04 -2.0204091e-05 8.1564807e-03 
-6.6137551e-04 2.0204114e-05 8.1564808e-03 
-1.7896518e-04 -2.0213887e-05 3.4646519e-03 
-1.7896651e-04 2.0198762e-05 3.4646503e-03 
-6.4359405e-04 -2.0204092e-05 7.6083517e-03 
-6.4359405e-04 2.0204114e-05 7.6083517e-03 
-1.4903293e-04 -2.0197749e-05 2.6771107e-03 
-1.4903442e-04 2.0187091e-05 2.6771096e-03 
-6.1883912e-04 -2.0204092e-05 7.0244994e-03 
-6.1883912e-04 2.0204114e-05 7.0244994e-03 
-1.1499612e-04 -2.0272969e-05 1.9361900e-03 
-1.1499758e-04 2.0266325e-05 1.9361903e-03 
-7.8192241e-05 -1.9807377e-05 1.2420452e-03 
-7.8193530e-05 1.9804053e-05 1.2420459e-03 
-5.8913152e-04 -2.0204093e-05 6.4477327e-03 
-5.8913152e-04 2.0204113e-05 6.4477327e-03 
-3.9725367e-05 -2.2890156e-05 5.9404443e-04 
-3.9726238e-05 2.2889166e-05 5.9404436e-04 
-5.5632325e-04 -2.0204093e-05 5.8965350e-03 
-5.5632325e-04 2.0204112e-05 5.8965350e-03 
0.0000000e+00 0.0000000e+00 0.0000000e+00 
0.0000000e+00 0.0000000e+00 0.0000000e+00 
0.0000000e+00 0.0000000e+00 0.0000000e+00 
0.0000000e+00 0.0000000e+00 0.0000000e+00 
-5.2150670e-04 -2.0204094e-05 5.3732878e-03 
-5.2150670e-04 2.0204112e-05 5.3732877e-03 
0.0000000e+00 0.0000000e+00 0.0000000e+00 
0.0000000e+00 0.0000000e+00 0.0000000e+00 
0.0000000e+00 0.0000000e+00 0.0000000e+00 
0.0000000e+00 0.0000000e+00 0.0000000e+00 
-4.8558337e-04 -2.0204095e-05 4.8793291e-03 
-4.8558337e-04 2.0204111e-05 4.8793291e-03 
0.0000000e+00 0.0000000e+00 0.0000000e+00 
0.0000000e+00 0.0000000e+00 0.0000000e+00 
0.0000000e+00 0.0000000e+00 0.0000000e+00 
0.0000000e+00 0.0000000e+00 0.0000000e+00 
-4.4928487e-04 -2.0204096e-05 4.4151956e-03 
-4.4928487e-04 2.0204110e-05 4.4151956e-03 
0.0000000e+00 0.0000000e+00 0.0000000e+00 
0.0000000e+00 0.0000000e+00 0.0000000e+00 
-4.1319440e-04 -2.0204097e-05 3.9808133e-03 
-4.1319440e-04 2.0204109e-05 3.9808133e-03 
0.0000000e+00 0.0000000e+00 0.0000000e+00 
0.0000000e+00 0.0000000e+00 0.0000000e+00 
-3.8902645e-04 -2.0204097e-05 3.7023810e-03 
-3.8902645e-04 2.0204108e-05 3.7023810e-03 
0.0000000e+00 0.0000000e+00 0.0000000e+00 
0.0000000e+00 0.0000000e+00 0.0000000e+00 
-3.6365416e-04 -2.0204098e-05 3.4193007e-03 
-3.6365416e-04 2.0204108e-05 3.4193007e-03 
-3.3705994e-04 -2.0204098e-05 3.1315763e-03 
-3.3705994e-04 2.0204107e-05 3.1315763e-03 
0.0000000e+00 0.0000000e+00 0.0000000e+00 
0.0000000e+00 0.0000000e+00 0.0000000e+00 
-3.0922628e-04 -2.0204099e-05 2.8392134e-03 
-3.0922628e-04 2.0204107e-05 2.8392134e-03 
0.0000000e+00 0.0000000e+00 0.0000000e+00 
0.0000000e+00 0.0000000e+00 0.0000000e+00 
-2.8013561e-04 -2.0204100e-05 2.5422162e-03 
-2.8013561e-04 2.0204106e-05 2.5422161e-03 
0.0000000e+00 0.0000000e+00 0.0000000e+00 
0.0000000e+00 0.0000000e+00 0.0000000e+00 
-2.4977041e-04 -2.0204100e-05 2.2405894e-03 
-2.4977041e-04 2.0204106e-05 2.2405894e-03 
0.0000000e+00 0.0000000e+00 0.0000000e+00 
0.0000000e+00 0.0000000e+00 0.0000000e+00 
-2.1811319e-04 -2.0204100e-05 1.9343381e-03 
-2.1811319e-04 2.0204104e-05 1.9343381e-03 
-1.8514645e-04 -2.0204118e-05 1.6234670e-03 
-1.8514645e-04 2.0204121e-05 1.6234670e-03 
0.0000000e+00 0.0000000e+00 0.0000000e+00 
0.0000000e+00 0.0000000e+00 0.0000000e+00 
-1.5085273e-04 -2.0203829e-05 1.3079813e-03 
-1.5085273e-04 2.0203831e-05 1.3079813e-03 
0.0000000e+00 0.0000000e+00 0.0000000e+00 
0.0000000e+00 0.0000000e+00 0.0000000e+00 
-1.1521459e-04 -2.0208628e-05 9.8788582e-04 
-1.1521459e-04 2.0208629e-05 9.8788583e-04 
0.0000000e+00 0.0000000e+00 0.0000000e+00 
0.0000000e+00 0.0000000e+00 0.0000000e+00 
-7.8214584e-05 -2.0128991e-05 6.6318589e-04 
-7.8214584e-05 2.0128992e-05 6.6318590e-04 
0.0000000e+00 0.0000000e+00 0.0000000e+00 
0.0000000e+00 0.0000000e+00 0.0000000e+00 
-3.9835326e-05 -2.1452840e-05 3.3388732e-04 
-3.9835326e-05 2.1452840e-05 3.3388732e-04 
0.0000000e+00 0.0000000e+00 0.0000000e+00 
0.0000000e+00 0.0000000e+00 0.0000000e+00 
0.0000000e+00 0.0000000e+00 0.0000000e+00 
0.0000000e+00 0.0000000e+00 0.0000000e+00 
0.0000000e+00 0.0000000e+00 0.0000000e+00 
0.0000000e+00 0.0000000e+00 0.0000000e+00 
0.0000000e+00 0.0000000e+00 0.0000000e+00 
0.0000000e+00 0.0000000e+00 0.0000000e+00 
0.0000000e+00 0.0000000e+00 0.0000000e+00 
0.0000000e+00 0.0000000e+00 0.0000000e+00 
0.0000000e+00 0.0000000e+00 0.0000000e+00 
0.0000000e+00 0.0000000e+00 0.0000000e+00 
0.0000000e+00 0.0000000e+00 0.0000000e+00 
0.0000000e+00 0.0000000e+00 0.0000000e+00 
0.0000000e+00 0.0000000e+00 0.0000000e+00 
0.0000000e+00 0.0000000e+00 0.0000000e+00 
0.0000000e+00 0.0000000e+00 0.0000000e+00 
0.0000000e+00 0.0000000e+00 0.0000000e+00 
0.0000000e+00 0.0000000e+00 0.0000000e+00 
0.0000000e+00 0.0000000e+00 0.0000000e+00 
0.0000000e+00 0.0000000e+00 0.0000000e+00 
0.0000000e+00 0.0000000e+00 0.0000000e+00 
0.0000000e+00 0.0000000e+00 0.0000000e+00 
0.0000000e+00 0.0000000e+00 0.0000000e+00 
0.0000000e+00 0.0000000e+00 0.0000000e+00 
0.0000000e+00 0.0000000e+00 0.0000000e+00 
0.0000000e+00 0.0000000e+00 0.0000000e+00 
0.0000000e+00 0.0000000e+00 0.0000000e+00 
0.0000000e+00 0.0000000e+00 0.0000000e+00 
0.0000000e+00 0.0000000e+00 0.0000000e+00 
0.0000000e+00 0.0000000e+00 0.0000000e+00 
0.0000000e+00 0.0000000e+00 0.0000000e+00 
0.0000000e+00 0.0000000e+00 0.0000000e+00 
0.0000000e+00 0.0000000e+00 0.0000000e+00 
0.0000000e+00 0.0000000e+00 0.0000000e+00 
0.0000000e+00 0.0000000e+00 0.0000000e+00 
0.0000000e+00 0.0000000e+00 0.0000000e+00 
0.0000000e+00 0.0000000e+00 0.0000000e+00 
0.0000000e+00 0.0000000e+00 0.0000000e+00 
0.0000000e+00 0.0000000e+00 0.0000000e+00 
0.0000000e+00 0.0000000e+00 0.0000000e+00 
0.0000000e+00 0.0000000e+00 0.0000000e+00 
0.0000000e+00 0.0000000e+00 0.0000000e+00 
0.0000000e+00 0.0000000e+00 0.0000000e+00 
0.0000000e+00 0.0000000e+00 0.0000000e+00 
0.0000000e+00 0.0000000e+00 0.0000000e+00 
0.0000000e+00 0.0000000e+00 0.0000000e+00 
0.0000000e+00 0.0000000e+00 0.0000000e+00 
0.0000000e+00 0.0000000e+00 0.0000000e+00 
0.0000000e+00 0.0000000e+00 0.0000000e+00 
0.0000000e+00 0.0000000e+00 0.0000000e+00 
0.0000000e+00 0.0000000e+00 0.0000000e+00 
0.0000000e+00 0.0000000e+00 0.0000000e+00 
0.0000000e+00 0.0000000e+00 0.0000000e+00 
0.0000000e+00 0.0000000e+00 0.0000000e+00 
0.0000000e+00 0.0000000e+00 0.0000000e+00 
0.0000000e+00 0.0000000e+00 0.0000000e+00 
0.0000000e+00 0.0000000e+00 0.0000000e+00 
0.0000000e+00 0.0000000e+00 0.0000000e+00 
0.0000000e+00 0.0000000e+00 0.0000000e+00 
0.0000000e+00 0.0000000e+00 0.0000000e+00 
0.0000000e+00 0.0000000e+00 0.0000000e+00 
0.0000000e+00 0.0000000e+00 0.0000000e+00 
0.0000000e+00 0.0000000e+00 0.0000000e+00 
0.0000000e+00 0.0000000e+00 0.0000000e+00 
0.0000000e+00 0.0000000e+00 0.0000000e+00 
REACTION 3 388  float
3.9243135e-02 1.0574557e-02 -7.5852196e-03 
3.4041202e-10 1.0975943e-02 5.7651917e-09 
3.0845977e-08 1.1609516e-02 9.2188761e-08 
-8.0088049e-10 1.2451297e-02 -1.3563605e-08 
-2.0660866e-08 1.3169893e-02 -6.1748885e-08 
1.5358668e-10 1.4089727e-02 2.6011115e-09 
7.3546569e-09 1.4902683e-02 2.1980699e-08 
3.9243135e-02 -1.0574557e-02 -7.5852196e-03 
3.4041202e-10 -1.0975943e-02 5.7651918e-09 
3.0845977e-08 -1.1609516e-02 9.2188761e-08 
-8.0088049e-10 -1.2451297e-02 -1.3563605e-08 
-2.0660866e-08 -1.3169893e-02 -6.1748885e-08 
5.3269626e-10 1.5898906e-02 9.0216753e-09 
1.7106368e-08 1.6816049e-02 5.1125746e-08 
1.5358669e-10 -1.4089727e-02 2.6011115e-09 
7.3546569e-09 -1.4902683e-02 2.1980699e-08 
5.3269627e-10 -1.5898906e-02 9.0216753e-09 
1.7106368e-08 -1.6816049e-02 5.1125746e-08 
-2.5855161e-10 1.7883277e-02 -4.3788054e-09 
-2.2073448e-08 1.8914591e-02 -6.5970756e-08 
-2.5855161e-10 -1.7883277e-02 -4.3788054e-09 
-2.2073448e-08 -1.8914591e-02 -6.5970756e-08 
-4.6901254e-11 2.0043347e-02 -7.9431328e-10 
5.0153283e-09 2.1198938e-02 1.4989210e-08 
-4.6901254e-11 -2.0043347e-02 -7.9431327e-10 
5.0153283e-09 -2.1198938e-02 1.4989210e-08 
4.7284844e-10 2.2374468e-02 8.0081228e-09 
4.4420113e-11 2.3664185e-02 1.3275765e-10 
4.7284843e-10 -2.2374468e-02 8.0081228e-09 
4.4420103e-11 -2.3664185e-02 1.3275763e-10 
-5.0004148e-10 2.4865031e-02 -8.4686606e-09 
-5.0004148e-10 -2.4865031e-02 -8.4686606e-09 
-4.6437258e-09 2.6298125e-02 -1.3878610e-08 
-4.6437258e-09 -2.6298125e-02 -1.3878610e-08 
2.6532523e-11 2.7495747e-02 4.4935126e-10 
2.6532526e-11 -2.7495747e-02 4.4935126e-10 
1.1903293e-08 2.9080440e-02 3.5575201e-08 
1.1903293e-08 -2.9080440e-02 3.5575201e-08 
2.5483883e-10 3.0238344e-02 4.3159230e-09 
2.5483883e-10 -3.0238344e-02 4.3159230e-09 
-9.2247885e-09 3.1980957e-02 -2.7570012e-08 
-9.2247885e-09 -3.1980957e-02 -2.7570012e-08 
-2.2552600e-10 3.3054250e-02 -3.8194851e-09 
-2.2552600e-10 -3.3054250e-02 -3.8194850e-09 
1.5300366e-09 3.4959076e-02 4.5727924e-09 
1.5300366e-09 -3.4959076e-02 4.5727924e-09 
-5.9865599e-11 3.5894794e-02 -1.0138754e-09 
-5.9865595e-11 -3.5894794e-02 -1.0138754e-09 
6.0706637e-09 3.7963542e-02 1.8143317e-08 
6.0706637e-09 -3.7963542e-02 1.8143317e-08 
1.2145376e-10 3.8701511e-02 2.0569251e-09 
1.2145376e-10 -3.8701511e-02 2.0569251e-09 
-1.3502402e-09 4.0932295e-02 -4.0354510e-09 
-1.3502402e-09 -4.0932295e-02 -4.0354510e-09 
-2.9910192e-11 4.1407151e-02 -5.0655548e-10 
-2.9910185e-11 -4.1407151e-02 -5.0655548e-10 
-1.1582794e-08 4.3794138e-02 -3.4617279e-08 
-1.1582794e-08 -4.3794138e-02 -3.4617279e-08 
2.0302144e-10 4.3938204e-02 3.4383510e-09 
2.0302143e-10 -4.3938204e-02 3.4383510e-09 
1.4174036e-08 4.6471650e-02 4.2361703e-08 
1.4174036e-08 -4.6471650e-02 4.2361703e-08 
-1.7143660e-10 4.6218030e-02 -2.9034339e-09 
-1.7143659e-10 -4.6218030e-02 -2.9034338e-09 
-9.1895691e-09 4.8883748e-02 -2.7464747e-08 
-9.1895691e-09 -4.8883748e-02 -2.7464747e-08 
-3.1803740e-11 4.8171201e-02 -5.3862437e-10 