# vtk DataFile Version 4.0
vtk output
ASCII
DATASET UNSTRUCTURED_GRID
POINTS 122 float
2.2500000e-01 0.0000000e+00 0.0000000e+00 
2.2500000e-01 -2.0000000e-03 0.0000000e+00 
1.9700000e-01 0.0000000e+00 1.7000000e-03 
1.9700000e-01 -2.0000000e-03 1.7000000e-03 
1.9700000e-01 0.0000000e+00 9.4000000e-03 
1.9700000e-01 -2.0000000e-03 9.4000000e-03 
1.8943000e-01 0.0000000e+00 9.7850000e-03 
1.8809500e-01 0.0000000e+00 1.4300000e-03 
1.8943000e-01 -2.0000000e-03 9.7850000e-03 
1.8809500e-01 -2.0000000e-03 1.4300000e-03 
1.8186000e-01 0.0000000e+00 1.0170000e-02 
1.8186000e-01 -2.0000000e-03 1.0170000e-02 
1.7919000e-01 0.0000000e+00 1.1600000e-03 
1.7919000e-01 -2.0000000e-03 1.1600000e-03 
1.7429000e-01 0.0000000e+00 1.0555000e-02 
1.7429000e-01 -2.0000000e-03 1.0555000e-02 
1.7028500e-01 0.0000000e+00 8.9000000e-04 
1.7028500e-01 -2.0000000e-03 8.9000000e-04 
1.6672000e-01 0.0000000e+00 1.0940000e-02 
1.6672000e-01 -2.0000000e-03 1.0940000e-02 
1.6138000e-01 0.0000000e+00 6.2000000e-04 
1.6138000e-01 -2.0000000e-03 6.2000000e-04 
1.5915000e-01 0.0000000e+00 1.1325000e-02 
1.5915000e-01 -2.0000000e-03 1.1325000e-02 
1.5247500e-01 0.0000000e+00 3.5000000e-04 
1.5247500e-01 -2.0000000e-03 3.5000000e-04 
1.5158000e-01 0.0000000e+00 1.1710000e-02 
1.5158000e-01 -2.0000000e-03 1.1710000e-02 
1.4357000e-01 0.0000000e+00 8.0000000e-05 
1.4357000e-01 -2.0000000e-03 8.0000000e-05 
1.4401000e-01 0.0000000e+00 1.2095000e-02 
1.4401000e-01 -2.0000000e-03 1.2095000e-02 
1.3644000e-01 0.0000000e+00 1.2480000e-02 
1.3644000e-01 -2.0000000e-03 1.2480000e-02 
1.3466500e-01 0.0000000e+00 -1.9000000e-04 
1.3466500e-01 -2.0000000e-03 -1.9000000e-04 
1.2887000e-01 0.0000000e+00 1.2865000e-02 
1.2887000e-01 -2.0000000e-03 1.2865000e-02 
1.2576000e-01 0.0000000e+00 -4.6000000e-04 
1.2576000e-01 -2.0000000e-03 -4.6000000e-04 
1.2130000e-01 0.0000000e+00 1.3250000e-02 
1.2130000e-01 -2.0000000e-03 1.3250000e-02 
1.1685500e-01 0.0000000e+00 -7.3000000e-04 
1.1685500e-01 -2.0000000e-03 -7.3000000e-04 
1.1373000e-01 0.0000000e+00 1.3635000e-02 
1.1373000e-01 -2.0000000e-03 1.3635000e-02 
1.0795000e-01 0.0000000e+00 -1.0000000e-03 
1.0795000e-01 -2.0000000e-03 -1.0000000e-03 
1.0616000e-01 0.0000000e+00 1.4020000e-02 
1.0616000e-01 -2.0000000e-03 1.4020000e-02 
9.9045000e-02 0.0000000e+00 -1.2700000e-03 
9.9045000e-02 -2.0000000e-03 -1.2700000e-03 
9.8590000e-02 0.0000000e+00 1.4405000e-02 
9.8590000e-02 -2.0000000e-03 1.4405000e-02 
9.1020000e-02 0.0000000e+00 1.4790000e-02 
9.1020000e-02 -2.0000000e-03 1.4790000e-02 
9.0140000e-02 0.0000000e+00 -1.5400000e-03 
9.0140000e-02 -2.0000000e-03 -1.5400000e-03 
8.3450000e-02 0.0000000e+00 1.5175000e-02 
8.3450000e-02 -2.0000000e-03 1.5175000e-02 
8.1235000e-02 0.0000000e+00 -1.8100000e-03 
8.1235000e-02 -2.0000000e-03 -1.8100000e-03 
7.5880000e-02 0.0000000e+00 1.5560000e-02 
7.5880000e-02 -2.0000000e-03 1.5560000e-02 
7.2330000e-02 0.0000000e+00 -2.0800000e-03 
7.2330000e-02 -2.0000000e-03 -2.0800000e-03 
6.8310000e-02 0.0000000e+00 1.5945000e-02 
6.8310000e-02 -2.0000000e-03 1.5945000e-02 
6.3425000e-02 0.0000000e+00 -2.3500000e-03 
6.3425000e-02 -2.0000000e-03 -2.3500000e-03 
6.0740000e-02 0.0000000e+00 1.6330000e-02 
6.0740000e-02 -2.0000000e-03 1.6330000e-02 
5.4520000e-02 0.0000000e+00 -2.6200000e-03 
5.4520000e-02 -2.0000000e-03 -2.6200000e-03 
5.3170000e-02 0.0000000e+00 1.6715000e-02 
5.3170000e-02 -2.0000000e-03 1.6715000e-02 
4.5615000e-02 0.0000000e+00 -2.8900000e-03 
4.5615000e-02 -2.0000000e-03 -2.8900000e-03 
4.5600000e-02 0.0000000e+00 1.7100000e-02 
4.5600000e-02 -2.0000000e-03 1.7100000e-02 
3.9437095e-02 0.0000000e+00 1.7147246e-02 
3.9437095e-02 -2.0000000e-03 1.7147246e-02 
3.6710000e-02 0.0000000e+00 -3.1600000e-03 
3.6710000e-02 -2.0000000e-03 -3.1600000e-03 
3.2950487e-02 0.0000000e+00 1.6732573e-02 
3.2950487e-02 -2.0000000e-03 1.6732573e-02 
2.7805000e-02 0.0000000e+00 -3.4300000e-03 
2.7805000e-02 -2.0000000e-03 -3.4300000e-03 
2.6954329e-02 0.0000000e+00 1.5782446e-02 
2.6954329e-02 -2.0000000e-03 1.5782446e-02 
2.1485588e-02 0.0000000e+00 1.4619751e-02 
2.1485588e-02 -2.0000000e-03 1.4619751e-02 
1.8900000e-02 0.0000000e+00 -3.7000000e-03 
1.8900000e-02 -2.0000000e-03 -3.7000000e-03 
1.6577982e-02 0.0000000e+00 1.3218783e-02 
1.6577982e-02 -2.0000000e-03 1.3218783e-02 
1.2261766e-02 0.0000000e+00 -3.6772060e-03 
1.2261766e-02 -2.0000000e-03 -3.6772060e-03 
1.2261766e-02 0.0000000e+00 1.1601316e-02 
1.2261766e-02 -2.0000000e-03 1.1601316e-02 
8.5635530e-03 0.0000000e+00 -3.4292840e-03 
8.5635530e-03 -2.0000000e-03 -3.4292840e-03 
8.5635530e-03 0.0000000e+00 9.8287860e-03 
8.5635530e-03 -2.0000000e-03 9.8287860e-03 
5.5061420e-03 0.0000000e+00 -2.9618110e-03 
5.5061420e-03 -2.0000000e-03 -2.9618110e-03 
5.5061420e-03 0.0000000e+00 7.9610410e-03 
5.5061420e-03 -2.0000000e-03 7.9610410e-03 
3.1083840e-03 0.0000000e+00 -2.3027950e-03 
3.1083840e-03 -2.0000000e-03 -2.3027950e-03 
3.1083840e-03 0.0000000e+00 6.0311380e-03 
3.1083840e-03 -2.0000000e-03 6.0311380e-03 
1.3850620e-03 0.0000000e+00 -1.6710370e-03 
1.3850620e-03 -2.0000000e-03 -1.6710370e-03 
1.3850620e-03 0.0000000e+00 4.3751030e-03 
1.3850620e-03 -2.0000000e-03 4.3751030e-03 
3.4680000e-04 0.0000000e+00 -8.2906700e-04 
3.4680000e-04 -2.0000000e-03 -8.2906700e-04 
3.4680000e-04 0.0000000e+00 2.4029600e-03 
3.4680000e-04 -2.0000000e-03 2.4029600e-03 
0.0000000e+00 0.0000000e+00 1.2000000e-03 
0.0000000e+00 -2.0000000e-03 1.2000000e-03 

CELLS 61 305
4 1 0 4 5
4 1 3 2 0
4 4 6 8 5
4 6 10 11 8
4 10 14 15 11
4 14 18 19 15
4 18 22 23 19
4 22 26 27 23
4 26 30 31 27
4 30 32 33 31
4 32 36 37 33
4 36 40 41 37
4 40 44 45 41
4 44 48 49 45
4 48 52 53 49
4 52 54 55 53
4 54 58 59 55
4 58 62 63 59
4 62 66 67 63
4 66 70 71 67
4 70 74 75 71
4 74 78 79 75
4 9 7 2 3
4 13 12 7 9
4 17 16 12 13
4 21 20 16 17
4 25 24 20 21
4 29 28 24 25
4 35 34 28 29
4 39 38 34 35
4 43 42 38 39
4 47 46 42 43
4 51 50 46 47
4 57 56 50 51
4 61 60 56 57
4 65 64 60 61
4 69 68 64 65
4 73 72 68 69
4 77 76 72 73
4 83 82 76 77
4 87 86 82 83
4 93 92 86 87
4 97 96 92 93
4 101 100 96 97
4 105 104 100 101
4 109 108 104 105
4 113 112 108 109
4 117 116 112 113
4 121 120 116 117
4 119 118 120 121
4 115 114 118 119
4 111 110 114 115
4 107 106 110 111
4 103 102 106 107
4 99 98 102 103
4 95 94 98 99
4 91 90 94 95
4 89 88 90 91
4 85 84 88 89
4 81 80 84 85
4 79 78 80 81

CELL_TYPES 61
9
9
9
9
9
9
9
9
9
9
9
9
9
9
9
9
9
9
9
9
9
9
9
9
9
9
9
9
9
9
9
9
9
9
9
9
9
9
9
9
9
9
9
9
9
9
9
9
9
9
9
9
9
9
9
9
9
9
9
9
9
POINT_DATA 122
FIELD FieldData 2
DISPLACEMENT 3 122  float
0.0000000e+00 0.0000000e+00 0.0000000e+00 
0.0000000e+00 0.0000000e+00 0.0000000e+00 
0.0000000e+00 0.0000000e+00 0.0000000e+00 
0.0000000e+00 0.0000000e+00 0.0000000e+00 
0.0000000e+00 0.0000000e+00 0.0000000e+00 
0.0000000e+00 0.0000000e+00 0.0000000e+00 
1.5962096e-19 0.0000000e+00 8.3315245e-19 
-9.1669922e-20 0.0000000e+00 4.0152988e-19 
1.6598956e-19 0.0000000e+00 4.0023383e-19 
-1.0035125e-19 0.0000000e+00 3.8960153e-19 
2.0874317e-19 0.0000000e+00 4.5804949e-19 
3.1836698e-19 0.0000000e+00 2.0909628e-18 
-3.5644941e-20 0.0000000e+00 1.4101519e-19 
-3.9791950e-20 0.0000000e+00 1.6978643e-19 
2.8688014e-19 0.0000000e+00 -1.6034385e-19 
2.7855611e-19 0.0000000e+00 1.7808691e-18 
-4.9921905e-20 0.0000000e+00 6.1362197e-19 
-4.0257805e-20 0.0000000e+00 5.9806704e-19 
2.7266983e-19 0.0000000e+00 -7.5413002e-19 
2.8748081e-19 0.0000000e+00 -4.5712778e-19 
-1.4908571e-19 0.0000000e+00 -3.4664593e-19 
-1.4349316e-19 0.0000000e+00 -3.3825277e-19 
2.8604509e-19 0.0000000e+00 -1.1865979e-18 
3.0076233e-19 0.0000000e+00 -1.7014906e-18 
-2.4249776e-19 0.0000000e+00 4.0101736e-19 
-2.6344625e-19 0.0000000e+00 4.2326293e-19 
4.3041382e-19 0.0000000e+00 -7.2825084e-19 
4.8457522e-19 0.0000000e+00 6.6800568e-19 
-2.6399327e-19 0.0000000e+00 5.5876340e-19 
-2.3819545e-19 0.0000000e+00 5.4409638e-19 
5.1664931e-19 0.0000000e+00 2.3418789e-19 
4.3923694e-19 0.0000000e+00 3.7153697e-19 
4.5032599e-19 0.0000000e+00 -7.0919287e-19 
6.1835291e-19 0.0000000e+00 3.3708689e-19 
-2.9576901e-19 0.0000000e+00 1.0528979e-18 
-3.1407050e-19 0.0000000e+00 1.0395808e-18 
5.0901632e-19 0.0000000e+00 6.1832924e-19 
4.4144089e-19 0.0000000e+00 -2.4872565e-18 
-1.9996600e-19 0.0000000e+00 1.1215291e-18 
-1.9170452e-19 0.0000000e+00 1.1222719e-18 
4.0636941e-19 0.0000000e+00 -1.8463512e-18 
4.7452145e-19 0.0000000e+00 -5.4353633e-19 
-2.8717345e-19 0.0000000e+00 3.9770703e-19 
-2.8968190e-19 0.0000000e+00 3.8267087e-19 
4.9419813e-19 0.0000000e+00 -1.6914048e-18 
5.7197391e-19 0.0000000e+00 2.9185630e-19 
-4.2392243e-19 0.0000000e+00 1.0269655e-18 
-4.2064774e-19 0.0000000e+00 1.0664400e-18 
5.2814731e-19 0.0000000e+00 -1.0013890e-18 
5.5103416e-19 0.0000000e+00 -8.0582014e-19 
-4.8564707e-19 0.0000000e+00 1.3902806e-19 
-4.8122066e-19 0.0000000e+00 3.9988668e-19 
5.9119374e-19 0.0000000e+00 -1.4248273e-18 
6.5705044e-19 0.0000000e+00 2.8267022e-19 
7.1157783e-19 0.0000000e+00 1.7685076e-18 
7.1037676e-19 0.0000000e+00 1.4476799e-18 
-5.1388986e-19 0.0000000e+00 6.4194703e-19 
-5.2349331e-19 0.0000000e+00 6.4957348e-19 
7.4209682e-19 0.0000000e+00 1.5474642e-18 
7.0196543e-19 0.0000000e+00 4.1494923e-19 
-3.3327597e-19 0.0000000e+00 6.7976697e-19 
-3.3298883e-19 0.0000000e+00 6.7901644e-19 
7.8443513e-19 0.0000000e+00 1.2412480e-18 
7.5066320e-19 0.0000000e+00 8.4986119e-19 
-2.4247718e-19 0.0000000e+00 7.3034838e-19 
-2.3421639e-19 0.0000000e+00 7.2955146e-19 
7.9952727e-19 0.0000000e+00 -5.3541107e-19 
6.7154285e-19 0.0000000e+00 6.7374642e-19 
-2.1769008e-19 0.0000000e+00 3.6569316e-19 
-2.2536666e-19 0.0000000e+00 3.6751955e-19 
7.0674476e-19 0.0000000e+00 -1.4222470e-19 
3.6949958e-19 0.0000000e+00 -1.6210339e-18 
-1.6506477e-19 0.0000000e+00 1.0523692e-20 
-1.5429303e-19 0.0000000e+00 3.0100436e-21 
8.8153315e-21 0.0000000e+00 7.5270109e-19 
7.2914847e-20 0.0000000e+00 1.2224434e-20 
-2.1913863e-19 0.0000000e+00 8.5445107e-19 
-2.2921392e-19 0.0000000e+00 8.6674916e-19 
0.0000000e+00 0.0000000e+00 0.0000000e+00 
0.0000000e+00 0.0000000e+00 0.0000000e+00 
0.0000000e+00 0.0000000e+00 0.0000000e+00 
0.0000000e+00 0.0000000e+00 0.0000000e+00 
-1.6058452e-19 0.0000000e+00 3.8876499e-19 
-1.5695444e-19 0.0000000e+00 3.7340707e-19 
0.0000000e+00 0.0000000e+00 0.0000000e+00 
0.0000000e+00 0.0000000e+00 0.0000000e+00 
-1.7486422e-19 0.0000000e+00 -3.2618333e-19 
-1.7917899e-19 0.0000000e+00 -3.1551764e-19 
0.0000000e+00 0.0000000e+00 0.0000000e+00 
0.0000000e+00 0.0000000e+00 0.0000000e+00 
0.0000000e+00 0.0000000e+00 0.0000000e+00 
0.0000000e+00 0.0000000e+00 0.0000000e+00 
0.0000000e+00 0.0000000e+00 0.0000000e+00 
0.0000000e+00 0.0000000e+00 0.0000000e+00 
0.0000000e+00 0.0000000e+00 0.0000000e+00 
0.0000000e+00 0.0000000e+00 0.0000000e+00 
0.0000000e+00 0.0000000e+00 0.0000000e+00 
0.0000000e+00 0.0000000e+00 0.0000000e+00 
0.0000000e+00 0.0000000e+00 0.0000000e+00 
0.0000000e+00 0.0000000e+00 0.0000000e+00 
0.0000000e+00 0.0000000e+00 0.0000000e+00 
0.0000000e+00 0.0000000e+00 0.0000000e+00 
0.0000000e+00 0.0000000e+00 0.0000000e+00 
0.0000000e+00 0.0000000e+00 0.0000000e+00 
0.0000000e+00 0.0000000e+00 0.0000000e+00 
0.0000000e+00 0.0000000e+00 0.0000000e+00 
0.0000000e+00 0.0000000e+00 0.0000000e+00 
0.0000000e+00 0.0000000e+00 0.0000000e+00 
0.0000000e+00 0.0000000e+00 0.0000000e+00 
0.0000000e+00 0.0000000e+00 0.0000000e+00 
0.0000000e+00 0.0000000e+00 0.0000000e+00 
0.0000000e+00 0.0000000e+00 0.0000000e+00 
0.0000000e+00 0.0000000e+00 0.0000000e+00 
0.0000000e+00 0.0000000e+00 0.0000000e+00 
0.0000000e+00 0.0000000e+00 0.0000000e+00 
0.0000000e+00 0.0000000e+00 0.0000000e+00 
0.0000000e+00 0.0000000e+00 0.0000000e+00 
0.0000000e+00 0.0000000e+00 0.0000000e+00 
0.0000000e+00 0.0000000e+00 0.0000000e+00 
0.0000000e+00 0.0000000e+00 0.0000000e+00 
0.0000000e+00 0.0000000e+00 0.0000000e+00 
0.0000000e+00 0.0000000e+00 0.0000000e+00 
REACTION 3 122  float
3.9234705e-02 5.8047999e-01 -7.6378412e-03 
3.9234705e-02 -5.8047999e-01 -7.6378412e-03 
2.7794519e-05 3.7256337e-01 1.8327216e-03 
2.7794519e-05 -3.7256337e-01 1.8327216e-03 
1.0222173e-03 3.7412449e-01 5.3921040e-03 
1.0222173e-03 -3.7412449e-01 5.3921040e-03 
4.5102810e-17 1.5280844e-01 -2.9923980e-17 
-0.0000000e+00 1.7960730e-01 -7.5894152e-19 
-4.8572257e-17 -1.5280844e-01 2.7972416e-17 
1.0408341e-17 -1.7960730e-01 -3.2526065e-19 
1.6306401e-16 1.5280844e-01 -1.0083080e-16 
-1.6653345e-16 -1.5280844e-01 1.0039712e-16 
-3.4694470e-18 1.7960730e-01 -2.1684043e-19 
-0.0000000e+00 -1.7960730e-01 -8.6736174e-19 
1.7694179e-16 1.5280844e-01 -1.3899472e-16 
-1.6653345e-16 -1.5280844e-01 1.3899472e-16 
-0.0000000e+00 1.7960730e-01 6.5052130e-19 
-1.0408341e-17 -1.7960730e-01 8.6736174e-19 
3.1225023e-17 1.5280844e-01 -1.6479873e-17 
-3.8163916e-17 -1.5280844e-01 2.7321895e-17 
3.4694470e-18 1.7960730e-01 -6.5052130e-19 
-0.0000000e+00 -1.7960730e-01 3.2526065e-19 
-0.0000000e+00 1.5280844e-01 6.2883726e-18 
3.4694470e-18 -1.5280844e-01 -1.9949320e-17 
-3.4694470e-18 1.7960730e-01 -3.7947076e-18 
1.3877788e-17 -1.7960730e-01 3.6862874e-18 
-1.7347235e-17 1.5280844e-01 3.3610267e-17 
1.0408341e-17 -1.5280844e-01 -2.1684043e-17 
6.9388939e-18 1.7960730e-01 5.4210109e-19 
-1.0408341e-17 -1.7960730e-01 -7.5894152e-19 
3.4694470e-18 1.5280844e-01 -1.5178830e-17 
3.4694470e-18 -1.5280844e-01 3.6862874e-18 
-2.0816682e-17 1.5280844e-01 6.5268971e-17 
1.3877788e-17 -1.5280844e-01 -5.6378513e-17 
-0.0000000e+00 1.7960730e-01 2.2768246e-18 
6.9388939e-18 -1.7960730e-01 -2.0599841e-18 
-1.0408341e-16 1.5280844e-01 8.2399365e-17 
1.0408341e-16 -1.5280844e-01 -8.7820376e-17 
-6.9388939e-18 1.7960730e-01 -1.0842022e-19 
-1.0408341e-17 -1.7960730e-01 -8.6736174e-19 
2.7061686e-16 1.5280844e-01 -2.0209528e-16 
-2.6367797e-16 -1.5280844e-01 2.0448053e-16 
-0.0000000e+00 1.7960730e-01 3.2526065e-19 
-0.0000000e+00 -1.7960730e-01 5.4210109e-19 
3.2265857e-16 1.5280844e-01 -2.4676441e-16 
-3.3306691e-16 -1.5280844e-01 2.4568021e-16 
3.4694470e-18 1.7960730e-01 -2.0599841e-18 
3.4694470e-18 -1.7960730e-01 1.6263033e-18 
2.7061686e-16 1.5280844e-01 -2.0729946e-16 
-2.6367797e-16 -1.5280844e-01 2.0860050e-16 
-1.0408341e-17 1.7960730e-01 -1.6154612e-17 
1.3877788e-17 -1.7960730e-01 1.7130394e-17 
2.1163626e-16 1.5280844e-01 -1.6132928e-16 
-2.1857516e-16 -1.5280844e-01 1.5373987e-16 
1.0408341e-17 1.5280844e-01 4.9873300e-18 
-0.0000000e+00 -1.5280844e-01 8.2399365e-18 
-0.0000000e+00 1.7960730e-01 -4.1199683e-18 
1.3877788e-17 -1.7960730e-01 3.7947076e-18 
-1.3530843e-16 1.5280844e-01 9.4108749e-17 
1.3183898e-16 -1.5280844e-01 -1.0278237e-16 
-3.4694470e-18 1.7960730e-01 -2.1684043e-19 
-3.4694470e-18 -1.7960730e-01 -1.0842022e-19 
-8.3266727e-17 1.5280844e-01 4.6837534e-17 
8.3266727e-17 -1.5280844e-01 -4.9222779e-17 
-0.0000000e+00 1.7960730e-01 1.3010426e-18 
-6.9388939e-18 -1.7960730e-01 1.0842022e-18 
-0.0000000e+00 1.5280844e-01 -8.1315163e-17 
-0.0000000e+00 -1.5280844e-01 8.3700408e-17 
-0.0000000e+00 1.7960730e-01 -2.1684043e-19 
3.4694470e-18 -1.7960730e-01 -0.0000000e+00 
-1.0408341e-17 1.5280844e-01 -1.1839488e-16 
-6.9388939e-18 -1.5280844e-01 1.2012960e-16 
-0.0000000e+00 1.7960730e-01 -1.3010426e-18 
-6.9388939e-18 -1.7960730e-01 -1.5178830e-18 
3.4694470e-18 1.5280844e-01 4.3368087e-19 
3.4694470e-18 -1.5280844e-01 8.0230961e-18 
-0.0000000e+00 1.7960730e-01 -0.0000000e+00 
6.9388939e-18 -1.7960730e-01 -1.0842022e-19 
2.5430102e-05 1.3852813e-01 8.6944112e-04 
2.5430102e-05 -1.3852813e-01 8.6944112e-04 
-4.0476049e-05 1.2764239e-01 1.4407000e-03 
-4.0476049e-05 -1.2764239e-01 1.4407000e-03 
-3.4694470e-18 1.7960730e-01 2.4936650e-18 
-3.4694470e-18 -1.7960730e-01 2.9273459e-18 
-2.0735472e-04 1.2671384e-01 1.8689540e-03 
-2.0735472e-04 -1.2671384e-01 1.8689540e-03 
6.9388939e-18 1.7960730e-01 -2.9273459e-18 
1.0408341e-17 -1.7960730e-01 -3.2526065e-18 
-1.9232526e-04 1.1755237e-01 1.0373514e-03 
-1.9232526e-04 -1.1755237e-01 1.0373514e-03 
-3.3367183e-04 1.0780187e-01 1.3415171e-03 
-3.3367183e-04 -1.0780187e-01 1.3415171e-03 
9.1413632e-06 1.5671744e-01 -6.8019522e-04 
9.1413632e-06 -1.5671744e-01 -6.8019522e-04 
-5.0758216e-04 9.7906899e-02 1.5404001e-03 
-5.0758216e-04 -9.7906899e-02 1.5404001e-03 
-4.5029929e-05 1.0427545e-01 -1.2792420e-03 
-4.5029929e-05 -1.0427545e-01 -1.2792420e-03 
-6.9828616e-04 8.7800665e-02 1.6390435e-03 
-6.9828616e-04 -8.7800665e-02 1.6390435e-03 
-1.8644755e-04 6.8538519e-02 -1.6985535e-03 
-1.8644755e-04 -6.8538519e-02 -1.6985535e-03 
-9.7586534e-04 7.7452933e-02 1.7962553e-03 
-9.7586534e-04 -7.7452933e-02 1.7962553e-03 
-4.8926152e-04 5.6242530e-02 -2.2957657e-03 
-4.8926152e-04 -5.6242530e-02 -2.2957657e-03 
-1.4989712e-03 6.7140035e-02 2.1308350e-03 
-1.4989712e-03 -6.7140035e-02 2.1308350e-03 
-5.1094575e-04 4.3567226e-02 -1.5961616e-03 
-5.1094575e-04 -4.3567226e-02 -1.5961616e-03 
-1.1686440e-03 5.5117326e-02 1.3281542e-03 
-1.1686440e-03 -5.5117326e-02 1.3281542e-03 
-3.2698035e-03 3.1976000e-02 -5.7590978e-03 
-3.2698035e-03 -3.1976000e-02 -5.7590978e-03 
-5.1447145e-03 4.6557423e-02 3.8701980e-03 
-5.1447145e-03 -4.6557423e-02 3.8701980e-03 
-1.2261978e-02 3.4224028e-02 -7.1737940e-03 
-1.2261978e-02 -3.4224028e-02 -7.1737940e-03 
-3.8070452e-03 3.5085494e-02 1.5322313e-03 
-3.8070452e-03 -3.5085494e-02 1.5322313e-03 
-8.9808861e-03 3.3369257e-02 5.0074451e-04 
-8.9808861e-03 -3.3369257e-02 5.0074451e-04 
CELL_DATA 61
FIELD FieldData 0
