# vtk DataFile Version 4.0
vtk output
ASCII
DATASET UNSTRUCTURED_GRID
POINTS 388 float
2.2500000e-01 0.0000000e+00 0.0000000e+00 
2.2449107e-01 0.0000000e+00 3.0050400e-05 
2.2448862e-01 0.0000000e+00 1.7110700e-04 
2.2391301e-01 0.0000000e+00 6.4182500e-05 
2.2390778e-01 0.0000000e+00 3.6545210e-04 
2.2325797e-01 0.0000000e+00 1.0286040e-04 
2.2324960e-01 0.0000000e+00 5.8567700e-04 
2.2500000e-01 -2.0000000e-03 0.0000000e+00 
2.2449107e-01 -2.0000000e-03 3.0050400e-05 
2.2448862e-01 -2.0000000e-03 1.7110700e-04 
2.2391301e-01 -2.0000000e-03 6.4182500e-05 
2.2390778e-01 -2.0000000e-03 3.6545210e-04 
2.2251765e-01 0.0000000e+00 1.4657370e-04 
2.2250574e-01 0.0000000e+00 8.3456920e-04 
2.2325797e-01 -2.0000000e-03 1.0286040e-04 
2.2324960e-01 -2.0000000e-03 5.8567700e-04 
2.2251765e-01 -2.0000000e-03 1.4657370e-04 
2.2250574e-01 -2.0000000e-03 8.3456920e-04 
2.2168344e-01 0.0000000e+00 1.9583050e-04 
2.2166755e-01 0.0000000e+00 1.1150213e-03 
2.2168344e-01 -2.0000000e-03 1.9583050e-04 
2.2166755e-01 -2.0000000e-03 1.1150213e-03 
2.2074660e-01 0.0000000e+00 2.5114740e-04 
2.2072626e-01 0.0000000e+00 1.4299735e-03 
2.2074660e-01 -2.0000000e-03 2.5114740e-04 
2.2072626e-01 -2.0000000e-03 1.4299735e-03 
2.1969847e-01 0.0000000e+00 3.1303560e-04 
2.1967316e-01 0.0000000e+00 1.7823360e-03 
2.1969847e-01 -2.0000000e-03 3.1303560e-04 
2.1967316e-01 -2.0000000e-03 1.7823360e-03 
2.1853077e-01 0.0000000e+00 3.8198350e-04 
2.1853077e-01 -2.0000000e-03 3.8198350e-04 
2.1849994e-01 0.0000000e+00 2.1748901e-03 
2.1849994e-01 -2.0000000e-03 2.1748901e-03 
2.1723599e-01 0.0000000e+00 4.5843550e-04 
2.1723599e-01 -2.0000000e-03 4.5843550e-04 
2.1719904e-01 0.0000000e+00 2.6101664e-03 
2.1719904e-01 -2.0000000e-03 2.6101664e-03 
2.1580776e-01 0.0000000e+00 5.4276720e-04 
2.1580776e-01 -2.0000000e-03 5.4276720e-04 
2.1576406e-01 0.0000000e+00 3.0903024e-03 
2.1576406e-01 -2.0000000e-03 3.0903024e-03 
2.1424137e-01 0.0000000e+00 6.3525640e-04 
2.1424137e-01 -2.0000000e-03 6.3525640e-04 
2.1419028e-01 0.0000000e+00 3.6168826e-03 
2.1419028e-01 -2.0000000e-03 3.6168826e-03 
2.1253427e-01 0.0000000e+00 7.3605430e-04 
2.1253427e-01 -2.0000000e-03 7.3605430e-04 
2.1247512e-01 0.0000000e+00 4.1907675e-03 
2.1247512e-01 -2.0000000e-03 4.1907675e-03 
2.1068657e-01 0.0000000e+00 8.4515420e-04 
2.1068657e-01 -2.0000000e-03 8.4515420e-04 
2.1061868e-01 0.0000000e+00 4.8119221e-03 
2.1061868e-01 -2.0000000e-03 4.8119221e-03 
2.0870151e-01 0.0000000e+00 9.6236450e-04 
2.0870151e-01 -2.0000000e-03 9.6236450e-04 
2.0862422e-01 0.0000000e+00 5.4792579e-03 
2.0862422e-01 -2.0000000e-03 5.4792579e-03 
2.0658586e-01 0.0000000e+00 1.0872857e-03 
2.0658586e-01 -2.0000000e-03 1.0872857e-03 
2.0649854e-01 0.0000000e+00 6.1905035e-03 
2.0649854e-01 -2.0000000e-03 6.1905035e-03 
2.0435014e-01 0.0000000e+00 1.2192962e-03 
2.0435014e-01 -2.0000000e-03 1.2192962e-03 
2.0425218e-01 0.0000000e+00 6.9421227e-03 
2.0425218e-01 -2.0000000e-03 6.9421227e-03 
2.0200871e-01 0.0000000e+00 1.3575488e-03 
2.0200871e-01 -2.0000000e-03 1.3575488e-03 
2.0189957e-01 0.0000000e+00 7.7292963e-03 
2.0189957e-01 -2.0000000e-03 7.7292963e-03 
1.9957956e-01 0.0000000e+00 1.5009810e-03 
1.9957956e-01 -2.0000000e-03 1.5009810e-03 
1.9945876e-01 0.0000000e+00 8.5459793e-03 
1.9945876e-01 -2.0000000e-03 8.5459793e-03 
1.9708391e-01 0.0000000e+00 1.6483401e-03 
1.9708391e-01 -2.0000000e-03 1.6483401e-03 
1.9694655e-01 0.0000000e+00 9.3714164e-03 
1.9694655e-01 -2.0000000e-03 9.3714161e-03 
1.9451177e-01 0.0000000e+00 1.5786032e-03 
1.9451177e-01 -2.0000000e-03 1.5786032e-03 
1.9444984e-01 0.0000000e+00 9.4997425e-03 
1.9444984e-01 -2.0000000e-03 9.4997423e-03 
1.9168266e-01 0.0000000e+00 1.4936791e-03 
1.9168266e-01 -2.0000000e-03 1.4936791e-03 
1.9170347e-01 0.0000000e+00 9.6409013e-03 
1.9170347e-01 -2.0000000e-03 9.6409011e-03 
1.8857063e-01 0.0000000e+00 1.4002627e-03 
1.8857063e-01 -2.0000000e-03 1.4002627e-03 
1.8868245e-01 0.0000000e+00 9.7961760e-03 
1.8868245e-01 -2.0000000e-03 9.7961758e-03 
1.8514741e-01 0.0000000e+00 1.2975046e-03 
1.8514741e-01 -2.0000000e-03 1.2975046e-03 
1.8535934e-01 0.0000000e+00 9.9669781e-03 
1.8535934e-01 -2.0000000e-03 9.9669779e-03 
1.8169597e-01 0.0000000e+00 1.1938996e-03 
1.8169597e-01 -2.0000000e-03 1.1938996e-03 
1.8170391e-01 0.0000000e+00 1.0154860e-02 
1.8170391e-01 -2.0000000e-03 1.0154860e-02 
1.7824453e-01 0.0000000e+00 1.0902946e-03 
1.7824453e-01 -2.0000000e-03 1.0902946e-03 
1.7804456e-01 0.0000000e+00 1.0342945e-02 
1.7804456e-01 -2.0000000e-03 1.0342945e-02 
1.7479309e-01 0.0000000e+00 9.8668960e-04 
1.7479309e-01 -2.0000000e-03 9.8668960e-04 
1.7438520e-01 0.0000000e+00 1.0531029e-02 
1.7438520e-01 -2.0000000e-03 1.0531029e-02 
1.7134165e-01 0.0000000e+00 8.8308460e-04 
1.7134165e-01 -2.0000000e-03 8.8308460e-04 
1.7072585e-01 0.0000000e+00 1.0719113e-02 
1.7072585e-01 -2.0000000e-03 1.0719113e-02 
1.6789021e-01 0.0000000e+00 7.7947960e-04 
1.6789021e-01 -2.0000000e-03 7.7947960e-04 
1.6706649e-01 0.0000000e+00 1.0907198e-02 
1.6706649e-01 -2.0000000e-03 1.0907198e-02 
1.6443877e-01 0.0000000e+00 6.7587460e-04 
1.6443877e-01 -2.0000000e-03 6.7587470e-04 
1.6340714e-01 0.0000000e+00 1.1095282e-02 
1.6340714e-01 -2.0000000e-03 1.1095282e-02 
1.6098733e-01 0.0000000e+00 5.7226970e-04 
1.6098733e-01 -2.0000000e-03 5.7226970e-04 
1.5974778e-01 0.0000000e+00 1.1283366e-02 
1.5974778e-01 -2.0000000e-03 1.1283366e-02 
1.5753589e-01 0.0000000e+00 4.6866470e-04 
1.5753589e-01 -2.0000000e-03 4.6866470e-04 
1.5608842e-01 0.0000000e+00 1.1471451e-02 
1.5608842e-01 -2.0000000e-03 1.1471450e-02 
1.5408445e-01 0.0000000e+00 3.6505970e-04 
1.5408445e-01 -2.0000000e-03 3.6505970e-04 
1.5242907e-01 0.0000000e+00 1.1659535e-02 
1.5242907e-01 -2.0000000e-03 1.1659535e-02 
1.5063301e-01 0.0000000e+00 2.6145470e-04 
1.5063301e-01 -2.0000000e-03 2.6145470e-04 
1.4876971e-01 0.0000000e+00 1.1847619e-02 
1.4876971e-01 -2.0000000e-03 1.1847619e-02 
1.4718157e-01 0.0000000e+00 1.5784970e-04 
1.4718157e-01 -2.0000000e-03 1.5784970e-04 
1.4511036e-01 0.0000000e+00 1.2035704e-02 
1.4511036e-01 -2.0000000e-03 1.2035703e-02 
1.4373013e-01 0.0000000e+00 5.4244700e-05 
1.4373013e-01 -2.0000000e-03 5.4244700e-05 
1.4145100e-01 0.0000000e+00 1.2223788e-02 
1.4145100e-01 -2.0000000e-03 1.2223788e-02 
1.4027869e-01 0.0000000e+00 -4.9360300e-05 
1.4027869e-01 -2.0000000e-03 -4.9360300e-05 
1.3779165e-01 0.0000000e+00 1.2411872e-02 
1.3779165e-01 -2.0000000e-03 1.2411872e-02 
1.3682725e-01 0.0000000e+00 -1.5296530e-04 
1.3682725e-01 -2.0000000e-03 -1.5296530e-04 
1.3337581e-01 0.0000000e+00 -2.5657020e-04 
1.3337581e-01 -2.0000000e-03 -2.5657020e-04 
1.3413229e-01 0.0000000e+00 1.2599957e-02 
1.3413229e-01 -2.0000000e-03 1.2599956e-02 
1.2992437e-01 0.0000000e+00 -3.6017520e-04 
1.2992437e-01 -2.0000000e-03 -3.6017520e-04 
1.3047294e-01 0.0000000e+00 1.2788041e-02 
1.3047294e-01 -2.0000000e-03 1.2788041e-02 
1.2647293e-01 0.0000000e+00 -4.6378020e-04 
1.2647293e-01 -2.0000000e-03 -4.6378020e-04 
1.2681358e-01 0.0000000e+00 1.2976125e-02 
1.2681358e-01 -2.0000000e-03 1.2976125e-02 
1.2302149e-01 0.0000000e+00 -5.6738520e-04 
1.2302149e-01 -2.0000000e-03 -5.6738520e-04 
1.2315422e-01 0.0000000e+00 1.3164209e-02 
1.2315422e-01 -2.0000000e-03 1.3164209e-02 
1.1957005e-01 0.0000000e+00 -6.7099020e-04 
1.1957005e-01 -2.0000000e-03 -6.7099020e-04 
1.1949487e-01 0.0000000e+00 1.3352294e-02 
1.1949487e-01 -2.0000000e-03 1.3352294e-02 
1.1611861e-01 0.0000000e+00 -7.7459520e-04 
1.1611861e-01 -2.0000000e-03 -7.7459520e-04 
1.1583551e-01 0.0000000e+00 1.3540378e-02 
1.1583551e-01 -2.0000000e-03 1.3540378e-02 
1.1266717e-01 0.0000000e+00 -8.7820020e-04 
1.1266717e-01 -2.0000000e-03 -8.7820020e-04 
1.1217616e-01 0.0000000e+00 1.3728462e-02 
1.1217616e-01 -2.0000000e-03 1.3728462e-02 
1.0921573e-01 0.0000000e+00 -9.8180510e-04 
1.0921573e-01 -2.0000000e-03 -9.8180510e-04 
1.0851680e-01 0.0000000e+00 1.3916547e-02 
1.0851680e-01 -2.0000000e-03 1.3916547e-02 
1.0576429e-01 0.0000000e+00 -1.0854101e-03 
1.0576429e-01 -2.0000000e-03 -1.0854101e-03 
1.0485745e-01 0.0000000e+00 1.4104631e-02 
1.0485745e-01 -2.0000000e-03 1.4104631e-02 
1.0231285e-01 0.0000000e+00 -1.1890151e-03 
1.0231285e-01 -2.0000000e-03 -1.1890151e-03 
1.0119809e-01 0.0000000e+00 1.4292715e-02 
1.0119809e-01 -2.0000000e-03 1.4292715e-02 
9.8861408e-02 0.0000000e+00 -1.2926201e-03 
9.8861408e-02 -2.0000000e-03 -1.2926201e-03 
9.7538735e-02 0.0000000e+00 1.4480800e-02 
9.7538735e-02 -2.0000000e-03 1.4480799e-02 
9.5409968e-02 0.0000000e+00 -1.3962251e-03 
9.5409968e-02 -2.0000000e-03 -1.3962251e-03 
9.3879379e-02 0.0000000e+00 1.4668884e-02 
9.3879379e-02 -2.0000000e-03 1.4668884e-02 
9.1958528e-02 0.0000000e+00 -1.4998301e-03 
9.1958528e-02 -2.0000000e-03 -1.4998301e-03 
9.0220024e-02 0.0000000e+00 1.4856968e-02 
9.0220024e-02 -2.0000000e-03 1.4856968e-02 
8.8507088e-02 0.0000000e+00 -1.6034351e-03 
8.8507088e-02 -2.0000000e-03 -1.6034351e-03 
8.6560668e-02 0.0000000e+00 1.5045053e-02 
8.6560668e-02 -2.0000000e-03 1.5045052e-02 
8.5055648e-02 0.0000000e+00 -1.7070400e-03 
8.5055648e-02 -2.0000000e-03 -1.7070400e-03 
8.2901313e-02 0.0000000e+00 1.5233137e-02 
8.2901313e-02 -2.0000000e-03 1.5233137e-02 
8.1604208e-02 0.0000000e+00 -1.8106450e-03 
8.1604208e-02 -2.0000000e-03 -1.8106450e-03 
7.9241957e-02 0.0000000e+00 1.5421221e-02 
7.9241957e-02 -2.0000000e-03 1.5421221e-02 
7.8152768e-02 0.0000000e+00 -1.9142500e-03 
7.8152768e-02 -2.0000000e-03 -1.9142500e-03 
7.5582602e-02 0.0000000e+00 1.5609306e-02 
7.5582602e-02 -2.0000000e-03 1.5609305e-02 
7.4701328e-02 0.0000000e+00 -2.0178550e-03 
7.4701328e-02 -2.0000000e-03 -2.0178550e-03 
7.1249888e-02 0.0000000e+00 -2.1214600e-03 
7.1249888e-02 -2.0000000e-03 -2.1214600e-03 
7.1923246e-02 0.0000000e+00 1.5797390e-02 
7.1923246e-02 -2.0000000e-03 1.5797390e-02 
6.7798448e-02 0.0000000e+00 -2.2250650e-03 
6.7798448e-02 -2.0000000e-03 -2.2250650e-03 
6.8263891e-02 0.0000000e+00 1.5985474e-02 
6.8263891e-02 -2.0000000e-03 1.5985474e-02 
[...]
POINT_DATA 388
FIELD FieldData 2
DISPLACEMENT 3 388  float
0.0000000e+00 0.0000000e+00 0.0000000e+00 
0.0000000e+00 0.0000000e+00 0.0000000e+00 
0.0000000e+00 0.0000000e+00 0.0000000e+00 
0.0000000e+00 0.0000000e+00 0.0000000e+00 
0.0000000e+00 0.0000000e+00 0.0000000e+00 
0.0000000e+00 0.0000000e+00 0.0000000e+00 
0.0000000e+00 0.0000000e+00 0.0000000e+00 
0.0000000e+00 0.0000000e+00 0.0000000e+00 
0.0000000e+00 0.0000000e+00 0.0000000e+00 
0.0000000e+00 0.0000000e+00 0.0000000e+00 
0.0000000e+00 0.0000000e+00 0.0000000e+00 
0.0000000e+00 0.0000000e+00 0.0000000e+00 
0.0000000e+00 0.0000000e+00 0.0000000e+00 
0.0000000e+00 0.0000000e+00 0.0000000e+00 
0.0000000e+00 0.0000000e+00 0.0000000e+00 
0.0000000e+00 0.0000000e+00 0.0000000e+00 
0.0000000e+00 0.0000000e+00 0.0000000e+00 
0.0000000e+00 0.0000000e+00 0.0000000e+00 
0.0000000e+00 0.0000000e+00 0.0000000e+00 
0.0000000e+00 0.0000000e+00 0.0000000e+00 
0.0000000e+00 0.0000000e+00 0.0000000e+00 
0.0000000e+00 0.0000000e+00 0.0000000e+00 
0.0000000e+00 0.0000000e+00 0.0000000e+00 
0.0000000e+00 0.0000000e+00 0.0000000e+00 
0.0000000e+00 0.0000000e+00 0.0000000e+00 
0.0000000e+00 0.0000000e+00 0.0000000e+00 
0.0000000e+00 0.0000000e+00 0.0000000e+00 
0.0000000e+00 0.0000000e+00 0.0000000e+00 
0.0000000e+00 0.0000000e+00 0.0000000e+00 
0.0000000e+00 0.0000000e+00 0.0000000e+00 
0.0000000e+00 0.0000000e+00 0.0000000e+00 
0.0000000e+00 0.0000000e+00 0.0000000e+00 
0.0000000e+00 0.0000000e+00 0.0000000e+00 
0.0000000e+00 0.0000000e+00 0.0000000e+00 
0.0000000e+00 0.0000000e+00 0.0000000e+00 
0.0000000e+00 0.0000000e+00 0.0000000e+00 
0.0000000e+00 0.0000000e+00 0.0000000e+00 
0.0000000e+00 0.0000000e+00 0.0000000e+00 
0.0000000e+00 0.0000000e+00 0.0000000e+00 
0.0000000e+00 0.0000000e+00 0.0000000e+00 
0.0000000e+00 0.0000000e+00 0.0000000e+00 
0.0000000e+00 0.0000000e+00 0.0000000e+00 
0.0000000e+00 0.0000000e+00 0.0000000e+00 
0.0000000e+00 0.0000000e+00 0.0000000e+00 
0.0000000e+00 0.0000000e+00 0.0000000e+00 
0.0000000e+00 0.0000000e+00 0.0000000e+00 
0.0000000e+00 0.0000000e+00 0.0000000e+00 
0.0000000e+00 0.0000000e+00 0.0000000e+00 
0.0000000e+00 0.0000000e+00 0.0000000e+00 
0.0000000e+00 0.0000000e+00 0.0000000e+00 
0.0000000e+00 0.0000000e+00 0.0000000e+00 
0.0000000e+00 0.0000000e+00 0.0000000e+00 
0.0000000e+00 0.0000000e+00 0.0000000e+00 
0.0000000e+00 0.0000000e+00 0.0000000e+00 
0.0000000e+00 0.0000000e+00 0.0000000e+00 
0.0000000e+00 0.0000000e+00 0.0000000e+00 
0.0000000e+00 0.0000000e+00 0.0000000e+00 
0.0000000e+00 0.0000000e+00 0.0000000e+00 
0.0000000e+00 0.0000000e+00 0.0000000e+00 
0.0000000e+00 0.0000000e+00 0.0000000e+00 
0.0000000e+00 0.0000000e+00 0.0000000e+00 
0.0000000e+00 0.0000000e+00 0.0000000e+00 
0.0000000e+00 0.0000000e+00 0.0000000e+00 
0.0000000e+00 0.0000000e+00 0.0000000e+00 
0.0000000e+00 0.0000000e+00 0.0000000e+00 
0.0000000e+00 0.0000000e+00 0.0000000e+00 
0.0000000e+00 0.0000000e+00 0.0000000e+00 
0.0000000e+00 0.0000000e+00 0.0000000e+00 
0.0000000e+00 0.0000000e+00 0.0000000e+00 
0.0000000e+00 0.0000000e+00 0.0000000e+00 
0.0000000e+00 0.0000000e+00 0.0000000e+00 
0.0000000e+00 0.0000000e+00 0.0000000e+00 
0.0000000e+00 0.0000000e+00 0.0000000e+00 
0.0000000e+00 0.0000000e+00 0.0000000e+00 
0.0000000e+00 0.0000000e+00 0.0000000e+00 
0.0000000e+00 0.0000000e+00 0.0000000e+00 
0.0000000e+00 0.0000000e+00 0.0000000e+00 
0.0000000e+00 0.0000000e+00 0.0000000e+00 
2.1021613e-07 0.0000000e+00 -7.3591994e-06 
2.1021613e-07 0.0000000e+00 -7.3591994e-06 
-7.2366348e-09 0.0000000e+00 -1.4847920e-07 
-7.2241487e-09 0.0000000e+00 -1.4823624e-07 
2.0682655e-07 0.0000000e+00 -7.2405452e-06 
2.0682655e-07 0.0000000e+00 -7.2405452e-06 
-1.5219514e-08 0.0000000e+00 -3.1224558e-07 
-1.5209622e-08 0.0000000e+00 -3.1205313e-07 
2.0310939e-07 0.0000000e+00 -7.1104050e-06 
2.0310939e-07 0.0000000e+00 -7.1104050e-06 
-2.3969130e-08 0.0000000e+00 -4.9177481e-07 
-2.3958814e-08 0.0000000e+00 -4.9157410e-07 
1.9900703e-07 0.0000000e+00 -6.9668016e-06 
1.9900703e-07 0.0000000e+00 -6.9668016e-06 
-3.3621432e-08 0.0000000e+00 -6.8979631e-07 
-3.3611191e-08 0.0000000e+00 -6.8959707e-07 
1.9487707e-07 0.0000000e+00 -6.8222210e-06 
1.9487707e-07 0.0000000e+00 -6.8222210e-06 
-4.4194307e-08 0.0000000e+00 -9.0675116e-07 
-4.4194305e-08 0.0000000e+00 -9.0675111e-07 
1.9074710e-07 0.0000000e+00 -6.6776405e-06 
1.9074710e-07 0.0000000e+00 -6.6776405e-06 
-5.4861544e-08 0.0000000e+00 -1.1255540e-06 
-5.4861545e-08 0.0000000e+00 -1.1255540e-06 
1.8661713e-07 0.0000000e+00 -6.5330600e-06 
1.8661713e-07 0.0000000e+00 -6.5330600e-06 
-6.5451200e-08 0.0000000e+00 -1.3428474e-06 
-6.5451200e-08 0.0000000e+00 -1.3428474e-06 
1.8248716e-07 0.0000000e+00 -6.3884795e-06 
1.8248716e-07 0.0000000e+00 -6.3884795e-06 
-7.6067175e-08 0.0000000e+00 -1.5606528e-06 
-7.6067175e-08 0.0000000e+00 -1.5606528e-06 
1.7835719e-07 0.0000000e+00 -6.2438990e-06 
1.7835719e-07 0.0000000e+00 -6.2438990e-06 
-8.6708094e-08 0.0000000e+00 -1.7789436e-06 
-8.6708094e-08 0.0000000e+00 -1.7789436e-06 
1.7422722e-07 0.0000000e+00 -6.0993185e-06 
1.7423022e-07 0.0000000e+00 -6.0994184e-06 
-9.7324069e-08 0.0000000e+00 -1.9967491e-06 
-9.7324069e-08 0.0000000e+00 -1.9967491e-06 
1.7010025e-07 0.0000000e+00 -5.9548379e-06 
1.7010025e-07 0.0000000e+00 -5.9548379e-06 
-1.0791373e-07 0.0000000e+00 -2.2140425e-06 
-1.0791373e-07 0.0000000e+00 -2.2140425e-06 
1.6597029e-07 0.0000000e+00 -5.8102574e-06 
1.6597029e-07 0.0000000e+00 -5.8102574e-06 
-1.1855464e-07 0.0000000e+00 -2.4323333e-06 
-1.1850338e-07 0.0000000e+00 -2.4313359e-06 
1.6184032e-07 0.0000000e+00 -5.6656769e-06 
1.6184032e-07 0.0000000e+00 -5.6656769e-06 
-1.2917062e-07 0.0000000e+00 -2.6501388e-06 
-1.2917062e-07 0.0000000e+00 -2.6501388e-06 
1.5771035e-07 0.0000000e+00 -5.5210964e-06 
1.5771035e-07 0.0000000e+00 -5.5210964e-06 
-1.3976027e-07 0.0000000e+00 -2.8674322e-06 
-1.3976027e-07 0.0000000e+00 -2.8674322e-06 
1.5358038e-07 0.0000000e+00 -5.3765159e-06 
1.5358038e-07 0.0000000e+00 -5.3765159e-06 
-1.5042751e-07 0.0000000e+00 -3.0862350e-06 
-1.5037625e-07 0.0000000e+00 -3.0852377e-06 
1.4945041e-07 0.0000000e+00 -5.2319354e-06 
1.4945041e-07 0.0000000e+00 -5.2319354e-06 
-1.6101717e-07 0.0000000e+00 -3.3035285e-06 
-1.6101717e-07 0.0000000e+00 -3.3035285e-06 
1.4532044e-07 0.0000000e+00 -5.0873549e-06 
1.4532044e-07 0.0000000e+00 -5.0873549e-06 
-1.7163314e-07 0.0000000e+00 -3.5213339e-06 
-1.7163314e-07 0.0000000e+00 -3.5213339e-06 
1.4119047e-07 0.0000000e+00 -4.9427744e-06 
1.4119047e-07 0.0000000e+00 -4.9427744e-06 
1.3706350e-07 0.0000000e+00 -4.7982938e-06 
1.3706350e-07 0.0000000e+00 -4.7982938e-06 
-1.8227406e-07 0.0000000e+00 -3.7396247e-06 
-1.8222280e-07 0.0000000e+00 -3.7386273e-06 
1.3293354e-07 0.0000000e+00 -4.6537133e-06 
1.3293354e-07 0.0000000e+00 -4.6537133e-06 
-1.9289004e-07 0.0000000e+00 -3.9574302e-06 
-1.9289004e-07 0.0000000e+00 -3.9574302e-06 
1.2880357e-07 0.0000000e+00 -4.5091327e-06 
1.2880357e-07 0.0000000e+00 -4.5091327e-06 
-2.0347969e-07 0.0000000e+00 -4.1747236e-06 
-2.0347969e-07 0.0000000e+00 -4.1747236e-06 
1.2467360e-07 0.0000000e+00 -4.3645522e-06 
1.2467360e-07 0.0000000e+00 -4.3645522e-06 
-2.1406935e-07 0.0000000e+00 -4.3920170e-06 
-2.1406935e-07 0.0000000e+00 -4.3920170e-06 
1.2054363e-07 0.0000000e+00 -4.2199717e-06 
1.2054363e-07 0.0000000e+00 -4.2199717e-06 
-2.2473659e-07 0.0000000e+00 -4.6108198e-06 
-2.2473659e-07 0.0000000e+00 -4.6108198e-06 
1.1641366e-07 0.0000000e+00 -4.0753912e-06 
1.1641366e-07 0.0000000e+00 -4.0753912e-06 
-2.3532624e-07 0.0000000e+00 -4.8281133e-06 
-2.3532624e-07 0.0000000e+00 -4.8281133e-06 
1.1228369e-07 0.0000000e+00 -3.9308107e-06 
1.1228369e-07 0.0000000e+00 -3.9308107e-06 
-2.4594222e-07 0.0000000e+00 -5.0459187e-06 
-2.4594222e-07 0.0000000e+00 -5.0459187e-06 
1.0815672e-07 0.0000000e+00 -3.7863301e-06 
1.0815672e-07 0.0000000e+00 -3.7863301e-06 
-2.5658314e-07 0.0000000e+00 -5.2642095e-06 
-2.5658314e-07 0.0000000e+00 -5.2642095e-06 
1.0402675e-07 0.0000000e+00 -3.6417496e-06 
1.0402675e-07 0.0000000e+00 -3.6417496e-06 
-2.6719911e-07 0.0000000e+00 -5.4820150e-06 
-2.6719911e-07 0.0000000e+00 -5.4820150e-06 
9.9896786e-08 0.0000000e+00 -3.4971691e-06 
9.9896786e-08 0.0000000e+00 -3.4971691e-06 
-2.7778877e-07 0.0000000e+00 -5.6993084e-06 
-2.7778877e-07 0.0000000e+00 -5.6993084e-06 
9.5768616e-08 0.0000000e+00 -3.3526485e-06 
9.5768616e-08 0.0000000e+00 -3.3526485e-06 
-2.8844285e-07 0.0000000e+00 -5.9178552e-06 
-2.8839158e-07 0.0000000e+00 -5.9168578e-06 
9.1638647e-08 0.0000000e+00 -3.2080680e-06 
9.1638647e-08 0.0000000e+00 -3.2080680e-06 
-2.9904303e-07 0.0000000e+00 -6.1353534e-06 
-2.9904303e-07 0.0000000e+00 -6.1353534e-06 
8.7508679e-08 0.0000000e+00 -3.0634875e-06 
8.7508679e-08 0.0000000e+00 -3.0634875e-06 
-3.0964585e-07 0.0000000e+00 -6.3529029e-06 
-3.0964585e-07 0.0000000e+00 -6.3529029e-06 
8.3378710e-08 0.0000000e+00 -2.9189070e-06 
8.3378710e-08 0.0000000e+00 -2.9189070e-06 
-3.2029729e-07 0.0000000e+00 -6.5713985e-06 
-3.2024603e-07 0.0000000e+00 -6.5704011e-06 
7.9251741e-08 0.0000000e+00 -2.7744264e-06 
7.9251741e-08 0.0000000e+00 -2.7744264e-06 
-3.3090011e-07 0.0000000e+00 -6.7889479e-06 
-3.3090011e-07 0.0000000e+00 -6.7889479e-06 
7.5121772e-08 0.0000000e+00 -2.6298459e-06 
7.5121772e-08 0.0000000e+00 -2.6298459e-06 
-3.4150029e-07 0.0000000e+00 -7.0064462e-06 
-3.4150029e-07 0.0000000e+00 -7.0064462e-06 
7.0991803e-08 0.0000000e+00 -2.4852654e-06 
7.0991803e-08 0.0000000e+00 -2.4852654e-06 
-3.5215437e-07 0.0000000e+00 -7.2249930e-06 
-3.5210311e-07 0.0000000e+00 -7.2239956e-06 
6.6861835e-08 0.0000000e+00 -2.3406848e-06 
6.6861835e-08 0.0000000e+00 -2.3406848e-06 
6.2731866e-08 0.0000000e+00 -2.1961043e-06 
6.2731866e-08 0.0000000e+00 -2.1961043e-06 
-3.6275455e-07 0.0000000e+00 -7.4424912e-06 
-3.6275455e-07 0.0000000e+00 -7.4424912e-06 
5.8601898e-08 0.0000000e+00 -2.0515238e-06 
5.8601898e-08 0.0000000e+00 -2.0515238e-06 
-3.7335737e-07 0.0000000e+00 -7.6600407e-06 
-3.7335737e-07 0.0000000e+00 -7.6600407e-06 
5.4471929e-08 0.0000000e+00 -1.9069433e-06 
5.4471929e-08 0.0000000e+00 -1.9069433e-06 
-3.8394659e-07 0.0000000e+00 -7.8773102e-06 
-3.8394659e-07 0.0000000e+00 -7.8773102e-06 
5.0341961e-08 0.0000000e+00 -1.7623628e-06 
5.0344960e-08 0.0000000e+00 -1.7624627e-06 
-3.9358237e-07 0.0000000e+00 -8.0750071e-06 
-3.9358237e-07 0.0000000e+00 -8.0750071e-06 
-4.0238147e-07 0.0000000e+00 -8.2554964e-06 
-4.0238147e-07 0.0000000e+00 -8.2554964e-06 
4.6214991e-08 0.0000000e+00 -1.6178822e-06 
4.6214991e-08 0.0000000e+00 -1.6178822e-06 
-4.1031398e-07 0.0000000e+00 -8.4182802e-06 
-4.1031398e-07 0.0000000e+00 -8.4182802e-06 
4.2085022e-08 0.0000000e+00 -1.4733017e-06 
4.2085022e-08 0.0000000e+00 -1.4733017e-06 
-4.1756526e-07 0.0000000e+00 -8.5670421e-06 
-4.1756526e-07 0.0000000e+00 -8.5670421e-06 
3.7955054e-08 0.0000000e+00 -1.3287212e-06 
3.7955054e-08 0.0000000e+00 -1.3287212e-06 
-4.2418434e-07 0.0000000e+00 -8.7028056e-06 
-4.2413308e-07 0.0000000e+00 -8.7018082e-06 
-4.3017002e-07 0.0000000e+00 -8.8256109e-06 
-4.3011876e-07 0.0000000e+00 -8.8246135e-06 
3.4103087e-08 0.0000000e+00 -1.1938720e-06 
3.4103087e-08 0.0000000e+00 -1.1938720e-06 
-4.3558072e-07 0.0000000e+00 -8.9366521e-06 
-4.3558072e-07 0.0000000e+00 -8.9366521e-06 
3.0599826e-08 0.0000000e+00 -1.0712326e-06 
3.0599826e-08 0.0000000e+00 -1.0712326e-06 
0.0000000e+00 0.0000000e+00 0.0000000e+00 
0.0000000e+00 0.0000000e+00 0.0000000e+00 
0.0000000e+00 0.0000000e+00 0.0000000e+00 
0.0000000e+00 0.0000000e+00 0.0000000e+00 
2.7415125e-08 0.0000000e+00 -9.5974512e-07 
2.7418124e-08 0.0000000e+00 -9.5984503e-07 
0.0000000e+00 0.0000000e+00 0.0000000e+00 
0.0000000e+00 0.0000000e+00 0.0000000e+00 
0.0000000e+00 0.0000000e+00 0.0000000e+00 
0.0000000e+00 0.0000000e+00 0.0000000e+00 
2.4521932e-08 0.0000000e+00 -8.5845910e-07 
2.4521932e-08 0.0000000e+00 -8.5845910e-07 
0.0000000e+00 0.0000000e+00 0.0000000e+00 
0.0000000e+00 0.0000000e+00 0.0000000e+00 
0.0000000e+00 0.0000000e+00 0.0000000e+00 
0.0000000e+00 0.0000000e+00 0.0000000e+00 
2.1891949e-08 0.0000000e+00 -7.6638728e-07 
2.1891949e-08 0.0000000e+00 -7.6638728e-07 
0.0000000e+00 0.0000000e+00 0.0000000e+00 
0.0000000e+00 0.0000000e+00 0.0000000e+00 
1.9498792e-08 0.0000000e+00 -6.8261024e-07 
1.9498792e-08 0.0000000e+00 -6.8261024e-07 
0.0000000e+00 0.0000000e+00 0.0000000e+00 
0.0000000e+00 0.0000000e+00 0.0000000e+00 
1.8000430e-08 0.0000000e+00 -6.3015326e-07 
1.8000430e-08 0.0000000e+00 -6.3015326e-07 
0.0000000e+00 0.0000000e+00 0.0000000e+00 
0.0000000e+00 0.0000000e+00 0.0000000e+00 
1.6499070e-08 0.0000000e+00 -5.7759636e-07 
1.6499070e-08 0.0000000e+00 -5.7759636e-07 
1.5001608e-08 0.0000000e+00 -5.2516932e-07 
1.5001608e-08 0.0000000e+00 -5.2516932e-07 
0.0000000e+00 0.0000000e+00 0.0000000e+00 
0.0000000e+00 0.0000000e+00 0.0000000e+00 
1.3500247e-08 0.0000000e+00 -4.7261243e-07 
1.3500247e-08 0.0000000e+00 -4.7261243e-07 
0.0000000e+00 0.0000000e+00 0.0000000e+00 
0.0000000e+00 0.0000000e+00 0.0000000e+00 
1.1998887e-08 0.0000000e+00 -4.2005553e-07 
1.2001886e-08 0.0000000e+00 -4.2015544e-07 
0.0000000e+00 0.0000000e+00 0.0000000e+00 
0.0000000e+00 0.0000000e+00 0.0000000e+00 
1.0500526e-08 0.0000000e+00 -3.6759855e-07 
1.0500526e-08 0.0000000e+00 -3.6759855e-07 
0.0000000e+00 0.0000000e+00 0.0000000e+00 
0.0000000e+00 0.0000000e+00 0.0000000e+00 
8.9991651e-09 0.0000000e+00 -3.1504165e-07 
8.9991651e-09 0.0000000e+00 -3.1504165e-07 
7.5008038e-09 0.0000000e+00 -2.6258466e-07 
7.5008038e-09 0.0000000e+00 -2.6258466e-07 
0.0000000e+00 0.0000000e+00 0.0000000e+00 
0.0000000e+00 0.0000000e+00 0.0000000e+00 
5.9994434e-09 0.0000000e+00 -2.1002777e-07 
5.9994434e-09 0.0000000e+00 -2.1002777e-07 
0.0000000e+00 0.0000000e+00 0.0000000e+00 
0.0000000e+00 0.0000000e+00 0.0000000e+00 
4.5010821e-09 0.0000000e+00 -1.5757078e-07 
4.5010821e-09 0.0000000e+00 -1.5757078e-07 
0.0000000e+00 0.0000000e+00 0.0000000e+00 
0.0000000e+00 0.0000000e+00 0.0000000e+00 
2.9997217e-09 0.0000000e+00 -1.0501388e-07 
2.9997217e-09 0.0000000e+00 -1.0501388e-07 
0.0000000e+00 0.0000000e+00 0.0000000e+00 
0.0000000e+00 0.0000000e+00 0.0000000e+00 
1.5013604e-09 0.0000000e+00 -5.2556896e-08 
1.5013604e-09 0.0000000e+00 -5.2556896e-08 
0.0000000e+00 0.0000000e+00 0.0000000e+00 
0.0000000e+00 0.0000000e+00 0.0000000e+00 
0.0000000e+00 0.0000000e+00 0.0000000e+00 
0.0000000e+00 0.0000000e+00 0.0000000e+00 
0.0000000e+00 0.0000000e+00 0.0000000e+00 
0.0000000e+00 0.0000000e+00 0.0000000e+00 
0.0000000e+00 0.0000000e+00 0.0000000e+00 
0.0000000e+00 0.0000000e+00 0.0000000e+00 
0.0000000e+00 0.0000000e+00 0.0000000e+00 
0.0000000e+00 0.0000000e+00 0.0000000e+00 
0.0000000e+00 0.0000000e+00 0.0000000e+00 
0.0000000e+00 0.0000000e+00 0.0000000e+00 
0.0000000e+00 0.0000000e+00 0.0000000e+00 
0.0000000e+00 0.0000000e+00 0.0000000e+00 
0.0000000e+00 0.0000000e+00 0.0000000e+00 
0.0000000e+00 0.0000000e+00 0.0000000e+00 
0.0000000e+00 0.0000000e+00 0.0000000e+00 
0.0000000e+00 0.0000000e+00 0.0000000e+00 
0.0000000e+00 0.0000000e+00 0.0000000e+00 
0.0000000e+00 0.0000000e+00 0.0000000e+00 
0.0000000e+00 0.0000000e+00 0.0000000e+00 
0.0000000e+00 0.0000000e+00 0.0000000e+00 
0.0000000e+00 0.0000000e+00 0.0000000e+00 
0.0000000e+00 0.0000000e+00 0.0000000e+00 
0.0000000e+00 0.0000000e+00 0.0000000e+00 
0.0000000e+00 0.0000000e+00 0.0000000e+00 
0.0000000e+00 0.0000000e+00 0.0000000e+00 
0.0000000e+00 0.0000000e+00 0.0000000e+00 
0.0000000e+00 0.0000000e+00 0.0000000e+00 
0.0000000e+00 0.0000000e+00 0.0000000e+00 
0.0000000e+00 0.0000000e+00 0.0000000e+00 
0.0000000e+00 0.0000000e+00 0.0000000e+00 
0.0000000e+00 0.0000000e+00 0.0000000e+00 
0.0000000e+00 0.0000000e+00 0.0000000e+00 
0.0000000e+00 0.0000000e+00 0.0000000e+00 
0.0000000e+00 0.0000000e+00 0.0000000e+00 
0.0000000e+00 0.0000000e+00 0.0000000e+00 
0.0000000e+00 0.0000000e+00 0.0000000e+00 
0.0000000e+00 0.0000000e+00 0.0000000e+00 
0.0000000e+00 0.0000000e+00 0.0000000e+00 
0.0000000e+00 0.0000000e+00 0.0000000e+00 
0.0000000e+00 0.0000000e+00 0.0000000e+00 
0.0000000e+00 0.0000000e+00 0.0000000e+00 
0.0000000e+00 0.0000000e+00 0.0000000e+00 
0.0000000e+00 0.0000000e+00 0.0000000e+00 
0.0000000e+00 0.0000000e+00 0.0000000e+00 
0.0000000e+00 0.0000000e+00 0.0000000e+00 
0.0000000e+00 0.0000000e+00 0.0000000e+00 
0.0000000e+00 0.0000000e+00 0.0000000e+00 
0.0000000e+00 0.0000000e+00 0.0000000e+00 
0.0000000e+00 0.0000000e+00 0.0000000e+00 
0.0000000e+00 0.0000000e+00 0.0000000e+00 
0.0000000e+00 0.0000000e+00 0.0000000e+00 
0.0000000e+00 0.0000000e+00 0.0000000e+00 
0.0000000e+00 0.0000000e+00 0.0000000e+00 
0.0000000e+00 0.0000000e+00 0.0000000e+00 
0.0000000e+00 0.0000000e+00 0.0000000e+00 
0.0000000e+00 0.0000000e+00 0.0000000e+00 
0.0000000e+00 0.0000000e+00 0.0000000e+00 
0.0000000e+00 0.0000000e+00 0.0000000e+00 
0.0000000e+00 0.0000000e+00 0.0000000e+00 
0.0000000e+00 0.0000000e+00 0.0000000e+00 
0.0000000e+00 0.0000000e+00 0.0000000e+00 
0.0000000e+00 0.0000000e+00 0.0000000e+00 
0.0000000e+00 0.0000000e+00 0.0000000e+00 
0.0000000e+00 0.0000000e+00 0.0000000e+00 
REACTION 3 388  float
9.3436035e-04 2.5177517e-04 -1.8060047e-04 
8.1050483e-12 2.6133197e-04 1.3726647e-10 
7.3442803e-10 2.7641705e-04 2.1949705e-09 
-1.9068583e-11 2.9645945e-04 -3.2294297e-10 
-4.9192539e-10 3.1356887e-04 -1.4702115e-09 
3.6568258e-12 3.3546968e-04 6.1931226e-11 
1.7511088e-10 3.5482578e-04 5.2334998e-10 
9.3436035e-04 -2.5177517e-04 -1.8060047e-04 
8.1050483e-12 -2.6133197e-04 1.3726647e-10 
7.3442803e-10 -2.7641705e-04 2.1949705e-09 
-1.9068583e-11 -2.9645945e-04 -3.2294298e-10 
-4.9192539e-10 -3.1356887e-04 -1.4702115e-09 
1.2683244e-11 3.7854537e-04 2.1480179e-10 
4.0729448e-10 4.0038212e-04 1.2172797e-09 
3.6568257e-12 -3.3546968e-04 6.1931226e-11 
1.7511088e-10 -3.5482578e-04 5.2334998e-10 
1.2683244e-11 -3.7854537e-04 2.1480179e-10 
4.0729448e-10 -4.0038212e-04 1.2172797e-09 
-6.1559909e-12 4.2579232e-04 -1.0425727e-10 
-5.2555828e-10 4.5034741e-04 -1.5707323e-09 
-6.1559908e-12 -4.2579232e-04 -1.0425727e-10 
-5.2555828e-10 -4.5034741e-04 -1.5707323e-09 
-1.1166965e-12 4.7722254e-04 -1.8912221e-11 
1.1941258e-10 5.0473663e-04 3.5688594e-10 
-1.1166964e-12 -4.7722254e-04 -1.8912221e-11 
1.1941258e-10 -5.0473663e-04 3.5688594e-10 
1.1258296e-11 5.3272544e-04 1.9066959e-10 
1.0576217e-12 5.6343298e-04 3.1608965e-12 
1.1258296e-11 -5.3272544e-04 1.9066959e-10 
1.0576215e-12 -5.6343298e-04 3.1608959e-12 
-1.1905749e-11 5.9202454e-04 -2.0163478e-10 
-1.1905749e-11 -5.9202454e-04 -2.0163478e-10 
-1.1056490e-10 6.2614583e-04 -3.3044310e-10 
-1.1056490e-10 -6.2614583e-04 -3.3044310e-10 
6.3172677e-13 6.5466065e-04 1.0698839e-11 
6.3172677e-13 -6.5466065e-04 1.0698840e-11 
2.8341174e-10 6.9239143e-04 8.4702859e-10 
2.8341174e-10 -6.9239143e-04 8.4702859e-10 
6.0675911e-12 7.1996058e-04 1.0276007e-10 
6.0675910e-12 -7.1996058e-04 1.0276007e-10 
-2.1963782e-10 7.6145136e-04 -6.5642886e-10 
-2.1963782e-10 -7.6145136e-04 -6.5642886e-10 
-5.3696666e-12 7.8700595e-04 -9.0940120e-11 
-5.3696666e-12 -7.8700595e-04 -9.0940120e-11 
3.6429442e-11 8.3235895e-04 1.0887601e-10 
3.6429442e-11 -8.3235895e-04 1.0887601e-10 
-1.4253713e-12 8.5463795e-04 -2.4139890e-11 
-1.4253713e-12 -8.5463795e-04 -2.4139891e-11 
1.4453961e-10 9.0389385e-04 4.3198375e-10 
1.4453961e-10 -9.0389385e-04 4.3198375e-10 
2.8917562e-12 9.2146454e-04 4.8974406e-11 
2.8917562e-12 -9.2146454e-04 4.8974407e-11 
-3.2148575e-11 9.7457846e-04 -9.6082167e-11 
-3.2148575e-11 -9.7457846e-04 -9.6082167e-11 
-7.1214746e-13 9.8588454e-04 -1.2060845e-11 
-7.1214741e-13 -9.8588454e-04 -1.2060845e-11 
-2.7578081e-10 1.0427176e-03 -8.2422094e-10 
-2.7578081e-10 -1.0427176e-03 -8.2422094e-10 
4.8338439e-12 1.0461477e-03 8.1865501e-11 
4.8338438e-12 -1.0461477e-03 8.1865501e-11 
3.3747704e-10 1.1064679e-03 1.0086120e-09 
3.3747704e-10 -1.1064679e-03 1.0086120e-09 
-4.0818238e-12 1.1004293e-03 -6.9129377e-11 
-4.0818239e-12 -1.1004293e-03 -6.9129377e-11 
-2.1879926e-10 1.1638988e-03 -6.5392255e-10 
-2.1879926e-10 -1.1638988e-03 -6.5392255e-10 