# vtk DataFile Version 4.0
vtk output
ASCII
DATASET UNSTRUCTURED_GRID
POINTS 388 float
2.2500000e-01 0.0000000e+00 0.0000000e+00 
2.2449107e-01 0.0000000e+00 3.0050400e-05 
2.2448862e-01 0.0000000e+00 1.7110700e-04 
2.2391301e-01 0.0000000e+00 6.4182500e-05 
2.2390778e-01 0.0000000e+00 3.6545210e-04 
2.2325797e-01 0.0000000e+00 1.0286040e-04 
2.2324960e-01 0.0000000e+00 5.8567700e-04 
2.2500000e-01 -2.0000000e-03 0.0000000e+00 
2.2449107e-01 -2.0000000e-03 3.0050400e-05 
2.2448862e-01 -2.0000000e-03 1.7110700e-04 
2.2391301e-01 -2.0000000e-03 6.4182500e-05 
2.2390778e-01 -2.0000000e-03 3.6545210e-04 
2.2251765e-01 0.0000000e+00 1.4657370e-04 
2.2250574e-01 0.0000000e+00 8.3456920e-04 
2.2325797e-01 -2.0000000e-03 1.0286040e-04 
2.2324960e-01 -2.0000000e-03 5.8567700e-04 
2.2251765e-01 -2.0000000e-03 1.4657370e-04 
2.2250574e-01 -2.0000000e-03 8.3456920e-04 
2.2168344e-01 0.0000000e+00 1.9583050e-04 
2.2166755e-01 0.0000000e+00 1.1150213e-03 
2.2168344e-01 -2.0000000e-03 1.9583050e-04 
2.2166755e-01 -2.0000000e-03 1.1150213e-03 
2.2074660e-01 0.0000000e+00 2.5114740e-04 
2.2072626e-01 0.0000000e+00 1.4299735e-03 
2.2074660e-01 -2.0000000e-03 2.5114740e-04 
2.2072626e-01 -2.0000000e-03 1.4299735e-03 
2.1969847e-01 0.0000000e+00 3.1303560e-04 
2.1967316e-01 0.0000000e+00 1.7823360e-03 
2.1969847e-01 -2.0000000e-03 3.1303560e-04 
2.1967316e-01 -2.0000000e-03 1.7823360e-03 
2.1853077e-01 0.0000000e+00 3.8198350e-04 
2.1853077e-01 -2.0000000e-03 3.8198350e-04 
2.1849994e-01 0.0000000e+00 2.1748901e-03 
2.1849994e-01 -2.0000000e-03 2.1748901e-03 
2.1723599e-01 0.0000000e+00 4.5843550e-04 
2.1723599e-01 -2.0000000e-03 4.5843550e-04 
2.1719904e-01 0.0000000e+00 2.6101664e-03 
2.1719904e-01 -2.0000000e-03 2.6101664e-03 
2.1580776e-01 0.0000000e+00 5.4276720e-04 
2.1580776e-01 -2.0000000e-03 5.4276720e-04 
2.1576406e-01 0.0000000e+00 3.0903024e-03 
2.1576406e-01 -2.0000000e-03 3.0903024e-03 
2.1424137e-01 0.0000000e+00 6.3525640e-04 
2.1424137e-01 -2.0000000e-03 6.3525640e-04 
2.1419028e-01 0.0000000e+00 3.6168826e-03 
2.1419028e-01 -2.0000000e-03 3.6168826e-03 
2.1253427e-01 0.0000000e+00 7.3605430e-04 
2.1253427e-01 -2.0000000e-03 7.3605430e-04 
2.1247512e-01 0.0000000e+00 4.1907675e-03 
2.1247512e-01 -2.0000000e-03 4.1907675e-03 
2.1068657e-01 0.0000000e+00 8.4515420e-04 
2.1068657e-01 -2.0000000e-03 8.4515420e-04 
2.1061868e-01 0.0000000e+00 4.8119221e-03 
2.1061868e-01 -2.0000000e-03 4.8119221e-03 
2.0870151e-01 0.0000000e+00 9.6236450e-04 
2.0870151e-01 -2.0000000e-03 9.6236450e-04 
2.0862422e-01 0.0000000e+00 5.4792579e-03 
2.0862422e-01 -2.0000000e-03 5.4792579e-03 
2.0658586e-01 0.0000000e+00 1.0872857e-03 
2.0658586e-01 -2.0000000e-03 1.0872857e-03 
2.0649854e-01 0.0000000e+00 6.1905035e-03 
2.0649854e-01 -2.0000000e-03 6.1905035e-03 
2.0435014e-01 0.0000000e+00 1.2192962e-03 
2.0435014e-01 -2.0000000e-03 1.2192962e-03 
2.0425218e-01 0.0000000e+00 6.9421227e-03 
2.0425218e-01 -2.0000000e-03 6.9421227e-03 
2.0200871e-01 0.0000000e+00 1.3575488e-03 
2.0200871e-01 -2.0000000e-03 1.3575488e-03 
2.0189957e-01 0.0000000e+00 7.7292963e-03 
2.0189957e-01 -2.0000000e-03 7.7292963e-03 
1.9957956e-01 0.0000000e+00 1.5009810e-03 
1.9957956e-01 -2.0000000e-03 1.5009810e-03 
1.9945876e-01 0.0000000e+00 8.5459793e-03 
1.9945876e-01 -2.0000000e-03 8.5459793e-03 
1.9708391e-01 0.0000000e+00 1.6483401e-03 
1.9708391e-01 -2.0000000e-03 1.6483401e-03 
1.9694655e-01 0.0000000e+00 9.3714164e-03 
1.9694655e-01 -2.0000000e-03 9.3714161e-03 
1.9451177e-01 0.0000000e+00 1.5786032e-03 
1.9451177e-01 -2.0000000e-03 1.5786032e-03 
1.9444984e-01 0.0000000e+00 9.4997425e-03 
1.9444984e-01 -2.0000000e-03 9.4997423e-03 
1.9168266e-01 0.0000000e+00 1.4936791e-03 
1.9168266e-01 -2.0000000e-03 1.4936791e-03 
1.9170347e-01 0.0000000e+00 9.6409013e-03 
1.9170347e-01 -2.0000000e-03 9.6409011e-03 
1.8857063e-01 0.0000000e+00 1.4002627e-03 
1.8857063e-01 -2.0000000e-03 1.4002627e-03 
1.8868245e-01 0.0000000e+00 9.7961760e-03 
1.8868245e-01 -2.0000000e-03 9.7961758e-03 
1.8514741e-01 0.0000000e+00 1.2975046e-03 
1.8514741e-01 -2.0000000e-03 1.2975046e-03 
1.8535934e-01 0.0000000e+00 9.9669781e-03 
1.8535934e-01 -2.0000000e-03 9.9669779e-03 
1.8169597e-01 0.0000000e+00 1.1938996e-03 
1.8169597e-01 -2.0000000e-03 1.1938996e-03 
1.8170391e-01 0.0000000e+00 1.0154860e-02 
1.8170391e-01 -2.0000000e-03 1.0154860e-02 
1.7824453e-01 0.0000000e+00 1.0902946e-03 
1.7824453e-01 -2.0000000e-03 1.0902946e-03 
1.7804456e-01 0.0000000e+00 1.0342945e-02 
1.7804456e-01 -2.0000000e-03 1.0342945e-02 
1.7479309e-01 0.0000000e+00 9.8668960e-04 
1.7479309e-01 -2.0000000e-03 9.8668960e-04 
1.7438520e-01 0.0000000e+00 1.0531029e-02 
1.7438520e-01 -2.0000000e-03 1.0531029e-02 
1.7134165e-01 0.0000000e+00 8.8308460e-04 
1.7134165e-01 -2.0000000e-03 8.8308460e-04 
1.7072585e-01 0.0000000e+00 1.0719113e-02 
1.7072585e-01 -2.0000000e-03 1.0719113e-02 
1.6789021e-01 0.0000000e+00 7.7947960e-04 
1.6789021e-01 -2.0000000e-03 7.7947960e-04 
1.6706649e-01 0.0000000e+00 1.0907198e-02 
1.6706649e-01 -2.0000000e-03 1.0907198e-02 
1.6443877e-01 0.0000000e+00 6.7587460e-04 
1.6443877e-01 -2.0000000e-03 6.7587470e-04 
1.6340714e-01 0.0000000e+00 1.1095282e-02 
1.6340714e-01 -2.0000000e-03 1.1095282e-02 
1.6098733e-01 0.0000000e+00 5.7226970e-04 
1.6098733e-01 -2.0000000e-03 5.7226970e-04 
1.5974778e-01 0.0000000e+00 1.1283366e-02 
1.5974778e-01 -2.0000000e-03 1.1283366e-02 
1.5753589e-01 0.0000000e+00 4.6866470e-04 
1.5753589e-01 -2.0000000e-03 4.6866470e-04 
1.5608842e-01 0.0000000e+00 1.1471451e-02 
1.5608842e-01 -2.0000000e-03 1.1471450e-02 
1.5408445e-01 0.0000000e+00 3.6505970e-04 
1.5408445e-01 -2.0000000e-03 3.6505970e-04 
1.5242907e-01 0.0000000e+00 1.1659535e-02 
1.5242907e-01 -2.0000000e-03 1.1659535e-02 
1.5063301e-01 0.0000000e+00 2.6145470e-04 
1.5063301e-01 -2.0000000e-03 2.6145470e-04 
1.4876971e-01 0.0000000e+00 1.1847619e-02 
1.4876971e-01 -2.0000000e-03 1.1847619e-02 
1.4718157e-01 0.0000000e+00 1.5784970e-04 
1.4718157e-01 -2.0000000e-03 1.5784970e-04 
1.4511036e-01 0.0000000e+00 1.2035704e-02 
1.4511036e-01 -2.0000000e-03 1.2035703e-02 
1.4373013e-01 0.0000000e+00 5.4244700e-05 
1.4373013e-01 -2.0000000e-03 5.4244700e-05 
1.4145100e-01 0.0000000e+00 1.2223788e-02 
1.4145100e-01 -2.0000000e-03 1.2223788e-02 
1.4027869e-01 0.0000000e+00 -4.9360300e-05 
1.4027869e-01 -2.0000000e-03 -4.9360300e-05 
1.3779165e-01 0.0000000e+00 1.2411872e-02 
1.3779165e-01 -2.0000000e-03 1.2411872e-02 
1.3682725e-01 0.0000000e+00 -1.5296530e-04 
1.3682725e-01 -2.0000000e-03 -1.5296530e-04 
1.3337581e-01 0.0000000e+00 -2.5657020e-04 
1.3337581e-01 -2.0000000e-03 -2.5657020e-04 
1.3413229e-01 0.0000000e+00 1.2599957e-02 
1.3413229e-01 -2.0000000e-03 1.2599956e-02 
1.2992437e-01 0.0000000e+00 -3.6017520e-04 
1.2992437e-01 -2.0000000e-03 -3.6017520e-04 
1.3047294e-01 0.0000000e+00 1.2788041e-02 
1.3047294e-01 -2.0000000e-03 1.2788041e-02 
1.2647293e-01 0.0000000e+00 -4.6378020e-04 
1.2647293e-01 -2.0000000e-03 -4.6378020e-04 
1.2681358e-01 0.0000000e+00 1.2976125e-02 
1.2681358e-01 -2.0000000e-03 1.2976125e-02 
1.2302149e-01 0.0000000e+00 -5.6738520e-04 
1.2302149e-01 -2.0000000e-03 -5.6738520e-04 
1.2315422e-01 0.0000000e+00 1.3164209e-02 
1.2315422e-01 -2.0000000e-03 1.3164209e-02 
1.1957005e-01 0.0000000e+00 -6.7099020e-04 
1.1957005e-01 -2.0000000e-03 -6.7099020e-04 
1.1949487e-01 0.0000000e+00 1.3352294e-02 
1.1949487e-01 -2.0000000e-03 1.3352294e-02 
1.1611861e-01 0.0000000e+00 -7.7459520e-04 
1.1611861e-01 -2.0000000e-03 -7.7459520e-04 
1.1583551e-01 0.0000000e+00 1.3540378e-02 
1.1583551e-01 -2.0000000e-03 1.3540378e-02 
1.1266717e-01 0.0000000e+00 -8.7820020e-04 
1.1266717e-01 -2.0000000e-03 -8.7820020e-04 
1.1217616e-01 0.0000000e+00 1.3728462e-02 
1.1217616e-01 -2.0000000e-03 1.3728462e-02 
1.0921573e-01 0.0000000e+00 -9.8180510e-04 
1.0921573e-01 -2.0000000e-03 -9.8180510e-04 
1.0851680e-01 0.0000000e+00 1.3916547e-02 
1.0851680e-01 -2.0000000e-03 1.3916547e-02 
1.0576429e-01 0.0000000e+00 -1.0854101e-03 
1.0576429e-01 -2.0000000e-03 -1.0854101e-03 
1.0485745e-01 0.0000000e+00 1.4104631e-02 
1.0485745e-01 -2.0000000e-03 1.4104631e-02 
1.0231285e-01 0.0000000e+00 -1.1890151e-03 
1.0231285e-01 -2.0000000e-03 -1.1890151e-03 
1.0119809e-01 0.0000000e+00 1.4292715e-02 
1.0119809e-01 -2.0000000e-03 1.4292715e-02 
9.8861408e-02 0.0000000e+00 -1.2926201e-03 
9.8861408e-02 -2.0000000e-03 -1.2926201e-03 
9.7538735e-02 0.0000000e+00 1.4480800e-02 
9.7538735e-02 -2.0000000e-03 1.4480799e-02 
9.5409968e-02 0.0000000e+00 -1.3962251e-03 
9.5409968e-02 -2.0000000e-03 -1.3962251e-03 
9.3879379e-02 0.0000000e+00 1.4668884e-02 
9.3879379e-02 -2.0000000e-03 1.4668884e-02 
9.1958528e-02 0.0000000e+00 -1.4998301e-03 
9.1958528e-02 -2.0000000e-03 -1.4998301e-03 
9.0220024e-02 0.0000000e+00 1.4856968e-02 
9.0220024e-02 -2.0000000e-03 1.4856968e-02 
8.8507088e-02 0.0000000e+00 -1.6034351e-03 
8.8507088e-02 -2.0000000e-03 -1.6034351e-03 
8.6560668e-02 0.0000000e+00 1.5045053e-02 
8.6560668e-02 -2.0000000e-03 1.5045052e-02 
8.5055648e-02 0.0000000e+00 -1.7070400e-03 
8.5055648e-02 -2.0000000e-03 -1.7070400e-03 
8.2901313e-02 0.0000000e+00 1.5233137e-02 
8.2901313e-02 -2.0000000e-03 1.5233137e-02 
8.1604208e-02 0.0000000e+00 -1.8106450e-03 
8.1604208e-02 -2.0000000e-03 -1.8106450e-03 
7.9241957e-02 0.0000000e+00 1.5421221e-02 
7.9241957e-02 -2.0000000e-03 1.5421221e-02 
7.8152768e-02 0.0000000e+00 -1.9142500e-03 
7.8152768e-02 -2.0000000e-03 -1.9142500e-03 
7.5582602e-02 0.0000000e+00 1.5609306e-02 
7.5582602e-02 -2.0000000e-03 1.5609305e-02 
7.4701328e-02 0.0000000e+00 -2.0178550e-03 
7.4701328e-02 -2.0000000e-03 -2.0178550e-03 
7.1249888e-02 0.0000000e+00 -2.1214600e-03 
7.1249888e-02 -2.0000000e-03 -2.1214600e-03 
7.1923246e-02 0.0000000e+00 1.5797390e-02 
7.1923246e-02 -2.0000000e-03 1.5797390e-02 
6.7798448e-02 0.0000000e+00 -2.2250650e-03 
6.7798448e-02 -2.0000000e-03 -2.2250650e-03 
6.8263891e-02 0.0000000e+00 1.5985474e-02 
6.8263891e-02 -2.0000000e-03 1.5985474e-02 
[...]
POINT_DATA 388
FIELD FieldData 2
DISPLACEMENT 3 388  float
0.0000000e+00 0.0000000e+00 0.0000000e+00 
0.0000000e+00 0.0000000e+00 0.0000000e+00 
0.0000000e+00 0.0000000e+00 0.0000000e+00 
0.0000000e+00 0.0000000e+00 0.0000000e+00 
0.0000000e+00 0.0000000e+00 0.0000000e+00 
0.0000000e+00 0.0000000e+00 0.0000000e+00 
0.0000000e+00 0.0000000e+00 0.0000000e+00 
0.0000000e+00 0.0000000e+00 0.0000000e+00 
0.0000000e+00 0.0000000e+00 0.0000000e+00 
0.0000000e+00 0.0000000e+00 0.0000000e+00 
0.0000000e+00 0.0000000e+00 0.0000000e+00 
0.0000000e+00 0.0000000e+00 0.0000000e+00 
0.0000000e+00 0.0000000e+00 0.0000000e+00 
0.0000000e+00 0.0000000e+00 0.0000000e+00 
0.0000000e+00 0.0000000e+00 0.0000000e+00 
0.0000000e+00 0.0000000e+00 0.0000000e+00 
0.0000000e+00 0.0000000e+00 0.0000000e+00 
0.0000000e+00 0.0000000e+00 0.0000000e+00 
0.0000000e+00 0.0000000e+00 0.0000000e+00 
0.0000000e+00 0.0000000e+00 0.0000000e+00 
0.0000000e+00 0.0000000e+00 0.0000000e+00 
0.0000000e+00 0.0000000e+00 0.0000000e+00 
0.0000000e+00 0.0000000e+00 0.0000000e+00 
0.0000000e+00 0.0000000e+00 0.0000000e+00 
0.0000000e+00 0.0000000e+00 0.0000000e+00 
0.0000000e+00 0.0000000e+00 0.0000000e+00 
0.0000000e+00 0.0000000e+00 0.0000000e+00 
0.0000000e+00 0.0000000e+00 0.0000000e+00 
0.0000000e+00 0.0000000e+00 0.0000000e+00 
0.0000000e+00 0.0000000e+00 0.0000000e+00 
0.0000000e+00 0.0000000e+00 0.0000000e+00 
0.0000000e+00 0.0000000e+00 0.0000000e+00 
0.0000000e+00 0.0000000e+00 0.0000000e+00 
0.0000000e+00 0.0000000e+00 0.0000000e+00 
0.0000000e+00 0.0000000e+00 0.0000000e+00 
0.0000000e+00 0.0000000e+00 0.0000000e+00 
0.0000000e+00 0.0000000e+00 0.0000000e+00 
0.0000000e+00 0.0000000e+00 0.0000000e+00 
0.0000000e+00 0.0000000e+00 0.0000000e+00 
0.0000000e+00 0.0000000e+00 0.0000000e+00 
0.0000000e+00 0.0000000e+00 0.0000000e+00 
0.0000000e+00 0.0000000e+00 0.0000000e+00 
0.0000000e+00 0.0000000e+00 0.0000000e+00 
0.0000000e+00 0.0000000e+00 0.0000000e+00 
0.0000000e+00 0.0000000e+00 0.0000000e+00 
0.0000000e+00 0.0000000e+00 0.0000000e+00 
0.0000000e+00 0.0000000e+00 0.0000000e+00 
0.0000000e+00 0.0000000e+00 0.0000000e+00 
0.0000000e+00 0.0000000e+00 0.0000000e+00 
0.0000000e+00 0.0000000e+00 0.0000000e+00 
0.0000000e+00 0.0000000e+00 0.0000000e+00 
0.0000000e+00 0.0000000e+00 0.0000000e+00 
0.0000000e+00 0.0000000e+00 0.0000000e+00 
0.0000000e+00 0.0000000e+00 0.0000000e+00 
0.0000000e+00 0.0000000e+00 0.0000000e+00 
0.0000000e+00 0.0000000e+00 0.0000000e+00 
0.0000000e+00 0.0000000e+00 0.0000000e+00 
0.0000000e+00 0.0000000e+00 0.0000000e+00 
0.0000000e+00 0.0000000e+00 0.0000000e+00 
0.0000000e+00 0.0000000e+00 0.0000000e+00 
0.0000000e+00 0.0000000e+00 0.0000000e+00 
0.0000000e+00 0.0000000e+00 0.0000000e+00 
0.0000000e+00 0.0000000e+00 0.0000000e+00 
0.0000000e+00 0.0000000e+00 0.0000000e+00 
0.0000000e+00 0.0000000e+00 0.0000000e+00 
0.0000000e+00 0.0000000e+00 0.0000000e+00 
0.0000000e+00 0.0000000e+00 0.0000000e+00 
0.0000000e+00 0.0000000e+00 0.0000000e+00 
0.0000000e+00 0.0000000e+00 0.0000000e+00 
0.0000000e+00 0.0000000e+00 0.0000000e+00 
0.0000000e+00 0.0000000e+00 0.0000000e+00 
0.0000000e+00 0.0000000e+00 0.0000000e+00 
0.0000000e+00 0.0000000e+00 0.0000000e+00 
0.0000000e+00 0.0000000e+00 0.0000000e+00 
0.0000000e+00 0.0000000e+00 0.0000000e+00 
0.0000000e+00 0.0000000e+00 0.0000000e+00 
0.0000000e+00 0.0000000e+00 0.0000000e+00 
0.0000000e+00 0.0000000e+00 0.0000000e+00 
-2.4485262e-06 0.0000000e+00 9.8683156e-06 
-2.4485262e-06 0.0000000e+00 9.8683156e-06 
4.9167233e-05 0.0000000e+00 4.9825746e-04 
4.9167247e-05 0.0000000e+00 4.9825769e-04 
-4.3511612e-06 0.0000000e+00 -5.2969999e-06 
-4.3511612e-06 0.0000000e+00 -5.2969999e-06 
1.0156425e-04 0.0000000e+00 1.0395733e-03 
1.0156426e-04 0.0000000e+00 1.0395735e-03 
-4.9200480e-06 0.0000000e+00 -5.8104953e-05 
-4.9200480e-06 0.0000000e+00 -5.8104953e-05 
1.5822428e-04 0.0000000e+00 1.6310882e-03 
1.5822429e-04 0.0000000e+00 1.6310884e-03 
-3.5006103e-06 0.0000000e+00 -1.5418572e-04 
-3.5006103e-06 0.0000000e+00 -1.5418572e-04 
2.1955204e-04 0.0000000e+00 2.2777173e-03 
2.1955205e-04 0.0000000e+00 2.2777175e-03 
1.6296004e-07 0.0000000e+00 -2.8549508e-04 
1.6296004e-07 0.0000000e+00 -2.8549508e-04 
2.8540384e-04 0.0000000e+00 2.9824509e-03 
2.8540384e-04 0.0000000e+00 2.9824509e-03 
6.1649383e-06 0.0000000e+00 -4.4839451e-04 
6.1649383e-06 0.0000000e+00 -4.4839451e-04 
3.4733601e-04 0.0000000e+00 3.6715112e-03 
3.4733601e-04 0.0000000e+00 3.6715112e-03 
1.4492550e-05 0.0000000e+00 -6.3948046e-04 
1.4492550e-05 0.0000000e+00 -6.3948046e-04 
4.0395202e-04 0.0000000e+00 4.3381966e-03 
4.0395202e-04 0.0000000e+00 4.3381966e-03 
2.4778668e-05 0.0000000e+00 -8.5241637e-04 
2.4778668e-05 0.0000000e+00 -8.5241637e-04 
4.5478093e-04 0.0000000e+00 4.9798368e-03 
4.5478093e-04 0.0000000e+00 4.9798368e-03 
3.6209152e-05 0.0000000e+00 -1.0774429e-03 
3.6209152e-05 0.0000000e+00 -1.0774429e-03 
4.9728196e-04 0.0000000e+00 5.5839936e-03 
4.9728196e-04 0.0000000e+00 5.5839936e-03 
4.7934224e-05 0.0000000e+00 -1.3055073e-03 
4.7934227e-05 0.0000000e+00 -1.3055074e-03 
5.2781570e-04 0.0000000e+00 6.1308824e-03 
5.2781570e-04 0.0000000e+00 6.1308824e-03 
5.9759099e-05 0.0000000e+00 -1.5345928e-03 
5.9759099e-05 0.0000000e+00 -1.5345928e-03 
5.4646162e-04 0.0000000e+00 6.6159299e-03 
5.4646162e-04 0.0000000e+00 6.6159299e-03 
7.1762035e-05 0.0000000e+00 -1.7654986e-03 
7.1762035e-05 0.0000000e+00 -1.7654986e-03 
5.5605910e-04 0.0000000e+00 7.0496590e-03 
5.5605915e-04 0.0000000e+00 7.0496600e-03 
8.3307948e-05 0.0000000e+00 -1.9917255e-03 
8.3307948e-05 0.0000000e+00 -1.9917255e-03 
5.5800061e-04 0.0000000e+00 7.4362803e-03 
5.5800061e-04 0.0000000e+00 7.4362803e-03 
9.3247149e-05 0.0000000e+00 -2.2008100e-03 
9.3247149e-05 0.0000000e+00 -2.2008100e-03 
5.5242335e-04 0.0000000e+00 7.7724131e-03 
5.5242335e-04 0.0000000e+00 7.7724131e-03 
1.0132388e-04 0.0000000e+00 -2.3887802e-03 
1.0132388e-04 0.0000000e+00 -2.3887802e-03 
5.4006234e-04 0.0000000e+00 8.0582649e-03 
5.4006239e-04 0.0000000e+00 8.0582659e-03 
1.0823046e-04 0.0000000e+00 -2.5626690e-03 
1.0823046e-04 0.0000000e+00 -2.5626690e-03 
5.2241836e-04 0.0000000e+00 8.3007688e-03 
5.2241836e-04 0.0000000e+00 8.3007688e-03 
1.1410724e-04 0.0000000e+00 -2.7234809e-03 
1.1410724e-04 0.0000000e+00 -2.7234809e-03 
5.0112430e-04 0.0000000e+00 8.5105227e-03 
5.0112430e-04 0.0000000e+00 8.5105227e-03 
1.1834348e-04 0.0000000e+00 -2.8618590e-03 
1.1834348e-04 0.0000000e+00 -2.8618590e-03 
1.2057647e-04 0.0000000e+00 -2.9696088e-03 
1.2057647e-04 0.0000000e+00 -2.9696088e-03 
4.7758253e-04 0.0000000e+00 8.6986310e-03 
4.7758259e-04 0.0000000e+00 8.6986320e-03 
1.2091505e-04 0.0000000e+00 -3.0434482e-03 
1.2091505e-04 0.0000000e+00 -3.0434482e-03 
4.5207206e-04 0.0000000e+00 8.8666923e-03 
4.5207206e-04 0.0000000e+00 8.8666923e-03 
1.1977687e-04 0.0000000e+00 -3.0852736e-03 
1.1977687e-04 0.0000000e+00 -3.0852736e-03 
4.2409692e-04 0.0000000e+00 9.0079674e-03 
4.2409692e-04 0.0000000e+00 9.0079674e-03 
1.1766493e-04 0.0000000e+00 -3.1013389e-03 
1.1766493e-04 0.0000000e+00 -3.1013389e-03 
3.9382803e-04 0.0000000e+00 9.1222232e-03 
3.9382803e-04 0.0000000e+00 9.1222232e-03 
1.1478240e-04 0.0000000e+00 -3.0919422e-03 
1.1478240e-04 0.0000000e+00 -3.0919422e-03 
3.6204955e-04 0.0000000e+00 9.2173294e-03 
3.6204955e-04 0.0000000e+00 9.2173294e-03 
1.1115407e-04 0.0000000e+00 -3.0480482e-03 
1.1115407e-04 0.0000000e+00 -3.0480482e-03 
3.2890702e-04 0.0000000e+00 9.2940889e-03 
3.2890702e-04 0.0000000e+00 9.2940889e-03 
1.0711996e-04 0.0000000e+00 -2.9696906e-03 
1.0711996e-04 0.0000000e+00 -2.9696906e-03 
2.9373282e-04 0.0000000e+00 9.3411694e-03 
2.9373282e-04 0.0000000e+00 9.3411694e-03 
1.0300340e-04 0.0000000e+00 -2.8722024e-03 
1.0300340e-04 0.0000000e+00 -2.8722024e-03 
2.5614520e-04 0.0000000e+00 9.3475331e-03 
2.5614520e-04 0.0000000e+00 9.3475331e-03 
9.8885447e-05 0.0000000e+00 -2.7651729e-03 
9.8885447e-05 0.0000000e+00 -2.7651729e-03 
2.1638178e-04 0.0000000e+00 9.3087085e-03 
2.1638178e-04 0.0000000e+00 9.3087085e-03 
9.4803230e-05 0.0000000e+00 -2.6456834e-03 
9.4803230e-05 0.0000000e+00 -2.6456834e-03 
1.7492275e-04 0.0000000e+00 9.2229546e-03 
1.7492275e-04 0.0000000e+00 9.2229546e-03 
9.0809683e-05 0.0000000e+00 -2.5124528e-03 
9.0809683e-05 0.0000000e+00 -2.5124528e-03 
1.3225783e-04 0.0000000e+00 9.0851720e-03 
1.3225788e-04 0.0000000e+00 9.0851730e-03 
8.6897496e-05 0.0000000e+00 -2.3706273e-03 
8.6897496e-05 0.0000000e+00 -2.3706273e-03 
8.9098580e-05 0.0000000e+00 8.8849382e-03 
8.9098580e-05 0.0000000e+00 8.8849382e-03 
8.3007247e-05 0.0000000e+00 -2.2268675e-03 
8.3007247e-05 0.0000000e+00 -2.2268675e-03 
4.6721665e-05 0.0000000e+00 8.6101115e-03 
4.6721665e-05 0.0000000e+00 8.6101115e-03 
7.9071476e-05 0.0000000e+00 -2.0873769e-03 
7.9071476e-05 0.0000000e+00 -2.0873769e-03 
6.8363159e-06 0.0000000e+00 8.2558937e-03 
6.8363677e-06 0.0000000e+00 8.2558947e-03 
7.5113044e-05 0.0000000e+00 -1.9501413e-03 
7.5113044e-05 0.0000000e+00 -1.9501413e-03 
-2.9091568e-05 0.0000000e+00 7.8262624e-03 
-2.9091568e-05 0.0000000e+00 7.8262624e-03 
7.1253635e-05 0.0000000e+00 -1.8036885e-03 
7.1253635e-05 0.0000000e+00 -1.8036885e-03 
-5.9937137e-05 0.0000000e+00 7.3264578e-03 
-5.9937137e-05 0.0000000e+00 7.3264578e-03 
6.7543216e-05 0.0000000e+00 -1.6462627e-03 
6.7543216e-05 0.0000000e+00 -1.6462627e-03 
-8.4427429e-05 0.0000000e+00 6.7574357e-03 
-8.4427377e-05 0.0000000e+00 6.7574367e-03 
6.3815814e-05 0.0000000e+00 -1.4898541e-03 
6.3815814e-05 0.0000000e+00 -1.4898541e-03 
5.9957594e-05 0.0000000e+00 -1.3430830e-03 
5.9957594e-05 0.0000000e+00 -1.3430830e-03 
-1.0124777e-04 0.0000000e+00 6.1193928e-03 
-1.0124777e-04 0.0000000e+00 6.1193928e-03 
5.5999282e-05 0.0000000e+00 -1.2054816e-03 
5.5999282e-05 0.0000000e+00 -1.2054816e-03 
-1.1011793e-04 0.0000000e+00 5.4198705e-03 
-1.1011793e-04 0.0000000e+00 5.4198705e-03 
5.1957409e-05 0.0000000e+00 -1.0779653e-03 
5.1957409e-05 0.0000000e+00 -1.0779653e-03 
-1.1219425e-04 0.0000000e+00 4.6742766e-03 
-1.1219425e-04 0.0000000e+00 4.6742766e-03 
4.7835795e-05 0.0000000e+00 -9.6945364e-04 
4.7835798e-05 0.0000000e+00 -9.6945374e-04 
-1.0952497e-04 0.0000000e+00 3.9671358e-03 
-1.0952497e-04 0.0000000e+00 3.9671358e-03 
-1.0296911e-04 0.0000000e+00 3.2989298e-03 
-1.0296911e-04 0.0000000e+00 3.2989298e-03 
4.3762936e-05 0.0000000e+00 -8.8571374e-04 
4.3762936e-05 0.0000000e+00 -8.8571374e-04 
-9.1979391e-05 0.0000000e+00 2.6621949e-03 
-9.1979391e-05 0.0000000e+00 2.6621949e-03 
3.9874824e-05 0.0000000e+00 -8.2341265e-04 
3.9874824e-05 0.0000000e+00 -8.2341265e-04 
-7.7098559e-05 0.0000000e+00 2.0567135e-03 
-7.7098559e-05 0.0000000e+00 2.0567135e-03 
3.6160509e-05 0.0000000e+00 -7.7391298e-04 
3.6160509e-05 0.0000000e+00 -7.7391298e-04 
-5.9720969e-05 0.0000000e+00 1.4865133e-03 
-5.9720918e-05 0.0000000e+00 1.4865144e-03 
-4.0835967e-05 0.0000000e+00 9.5293727e-04 
-4.0835916e-05 0.0000000e+00 9.5293828e-04 
3.2712468e-05 0.0000000e+00 -7.2888237e-04 
3.2712468e-05 0.0000000e+00 -7.2888237e-04 
-2.0958047e-05 0.0000000e+00 4.5496160e-04 
-2.0958047e-05 0.0000000e+00 4.5496160e-04 
2.9540333e-05 0.0000000e+00 -6.8554535e-04 
2.9540333e-05 0.0000000e+00 -6.8554535e-04 
0.0000000e+00 0.0000000e+00 0.0000000e+00 
0.0000000e+00 0.0000000e+00 0.0000000e+00 
0.0000000e+00 0.0000000e+00 0.0000000e+00 
0.0000000e+00 0.0000000e+00 0.0000000e+00 
2.6640983e-05 0.0000000e+00 -6.4508898e-04 
2.6640986e-05 0.0000000e+00 -6.4508908e-04 
0.0000000e+00 0.0000000e+00 0.0000000e+00 
0.0000000e+00 0.0000000e+00 0.0000000e+00 
0.0000000e+00 0.0000000e+00 0.0000000e+00 
0.0000000e+00 0.0000000e+00 0.0000000e+00 
2.3942692e-05 0.0000000e+00 -6.0356792e-04 
2.3942692e-05 0.0000000e+00 -6.0356792e-04 
0.0000000e+00 0.0000000e+00 0.0000000e+00 
0.0000000e+00 0.0000000e+00 0.0000000e+00 
0.0000000e+00 0.0000000e+00 0.0000000e+00 
0.0000000e+00 0.0000000e+00 0.0000000e+00 
2.1397019e-05 0.0000000e+00 -5.5650313e-04 
2.1397019e-05 0.0000000e+00 -5.5650313e-04 
0.0000000e+00 0.0000000e+00 0.0000000e+00 
0.0000000e+00 0.0000000e+00 0.0000000e+00 
1.9031313e-05 0.0000000e+00 -5.0339572e-04 
1.9031313e-05 0.0000000e+00 -5.0339572e-04 
0.0000000e+00 0.0000000e+00 0.0000000e+00 
0.0000000e+00 0.0000000e+00 0.0000000e+00 
1.7549651e-05 0.0000000e+00 -4.6480094e-04 
1.7549651e-05 0.0000000e+00 -4.6480094e-04 
0.0000000e+00 0.0000000e+00 0.0000000e+00 
0.0000000e+00 0.0000000e+00 0.0000000e+00 
1.6083992e-05 0.0000000e+00 -4.2280169e-04 
1.6083992e-05 0.0000000e+00 -4.2280169e-04 
1.4632045e-05 0.0000000e+00 -3.7885058e-04 
1.4632045e-05 0.0000000e+00 -3.7885058e-04 
0.0000000e+00 0.0000000e+00 0.0000000e+00 
0.0000000e+00 0.0000000e+00 0.0000000e+00 
1.3184556e-05 0.0000000e+00 -3.3434831e-04 
1.3184556e-05 0.0000000e+00 -3.3434831e-04 
0.0000000e+00 0.0000000e+00 0.0000000e+00 
0.0000000e+00 0.0000000e+00 0.0000000e+00 
1.1736370e-05 0.0000000e+00 -2.8993564e-04 
1.1736373e-05 0.0000000e+00 -2.8993574e-04 
0.0000000e+00 0.0000000e+00 0.0000000e+00 
0.0000000e+00 0.0000000e+00 0.0000000e+00 
1.0283781e-05 0.0000000e+00 -2.4610607e-04 
1.0283781e-05 0.0000000e+00 -2.4610607e-04 
0.0000000e+00 0.0000000e+00 0.0000000e+00 
0.0000000e+00 0.0000000e+00 0.0000000e+00 
8.8238815e-06 0.0000000e+00 -2.0339692e-04 
8.8238815e-06 0.0000000e+00 -2.0339692e-04 
7.3552483e-06 0.0000000e+00 -1.6237372e-04 
7.3552483e-06 0.0000000e+00 -1.6237372e-04 
0.0000000e+00 0.0000000e+00 0.0000000e+00 
0.0000000e+00 0.0000000e+00 0.0000000e+00 
5.8770192e-06 0.0000000e+00 -1.2405432e-04 
5.8770192e-06 0.0000000e+00 -1.2405432e-04 
0.0000000e+00 0.0000000e+00 0.0000000e+00 
0.0000000e+00 0.0000000e+00 0.0000000e+00 
4.3951285e-06 0.0000000e+00 -8.8788748e-05 
4.3951285e-06 0.0000000e+00 -8.8788748e-05 
0.0000000e+00 0.0000000e+00 0.0000000e+00 
0.0000000e+00 0.0000000e+00 0.0000000e+00 
2.9164541e-06 0.0000000e+00 -5.6216887e-05 
2.9164541e-06 0.0000000e+00 -5.6216887e-05 
0.0000000e+00 0.0000000e+00 0.0000000e+00 
0.0000000e+00 0.0000000e+00 0.0000000e+00 
1.4481523e-06 0.0000000e+00 -2.6626055e-05 
1.4481523e-06 0.0000000e+00 -2.6626055e-05 
0.0000000e+00 0.0000000e+00 0.0000000e+00 
0.0000000e+00 0.0000000e+00 0.0000000e+00 
0.0000000e+00 0.0000000e+00 0.0000000e+00 
0.0000000e+00 0.0000000e+00 0.0000000e+00 
0.0000000e+00 0.0000000e+00 0.0000000e+00 
0.0000000e+00 0.0000000e+00 0.0000000e+00 
0.0000000e+00 0.0000000e+00 0.0000000e+00 
0.0000000e+00 0.0000000e+00 0.0000000e+00 
0.0000000e+00 0.0000000e+00 0.0000000e+00 
0.0000000e+00 0.0000000e+00 0.0000000e+00 
0.0000000e+00 0.0000000e+00 0.0000000e+00 
0.0000000e+00 0.0000000e+00 0.0000000e+00 
0.0000000e+00 0.0000000e+00 0.0000000e+00 
0.0000000e+00 0.0000000e+00 0.0000000e+00 
0.0000000e+00 0.0000000e+00 0.0000000e+00 
0.0000000e+00 0.0000000e+00 0.0000000e+00 
0.0000000e+00 0.0000000e+00 0.0000000e+00 
0.0000000e+00 0.0000000e+00 0.0000000e+00 
0.0000000e+00 0.0000000e+00 0.0000000e+00 
0.0000000e+00 0.0000000e+00 0.0000000e+00 
0.0000000e+00 0.0000000e+00 0.0000000e+00 
0.0000000e+00 0.0000000e+00 0.0000000e+00 
0.0000000e+00 0.0000000e+00 0.0000000e+00 
0.0000000e+00 0.0000000e+00 0.0000000e+00 
0.0000000e+00 0.0000000e+00 0.0000000e+00 
0.0000000e+00 0.0000000e+00 0.0000000e+00 
0.0000000e+00 0.0000000e+00 0.0000000e+00 
0.0000000e+00 0.0000000e+00 0.0000000e+00 
0.0000000e+00 0.0000000e+00 0.0000000e+00 
0.0000000e+00 0.0000000e+00 0.0000000e+00 
0.0000000e+00 0.0000000e+00 0.0000000e+00 
0.0000000e+00 0.0000000e+00 0.0000000e+00 
0.0000000e+00 0.0000000e+00 0.0000000e+00 
0.0000000e+00 0.0000000e+00 0.0000000e+00 
0.0000000e+00 0.0000000e+00 0.0000000e+00 
0.0000000e+00 0.0000000e+00 0.0000000e+00 
0.0000000e+00 0.0000000e+00 0.0000000e+00 
0.0000000e+00 0.0000000e+00 0.0000000e+00 
0.0000000e+00 0.0000000e+00 0.0000000e+00 
0.0000000e+00 0.0000000e+00 0.0000000e+00 
0.0000000e+00 0.0000000e+00 0.0000000e+00 
0.0000000e+00 0.0000000e+00 0.0000000e+00 
0.0000000e+00 0.0000000e+00 0.0000000e+00 
0.0000000e+00 0.0000000e+00 0.0000000e+00 
0.0000000e+00 0.0000000e+00 0.0000000e+00 
0.0000000e+00 0.0000000e+00 0.0000000e+00 
0.0000000e+00 0.0000000e+00 0.0000000e+00 
0.0000000e+00 0.0000000e+00 0.0000000e+00 
0.0000000e+00 0.0000000e+00 0.0000000e+00 
0.0000000e+00 0.0000000e+00 0.0000000e+00 
0.0000000e+00 0.0000000e+00 0.0000000e+00 
0.0000000e+00 0.0000000e+00 0.0000000e+00 
0.0000000e+00 0.0000000e+00 0.0000000e+00 
0.0000000e+00 0.0000000e+00 0.0000000e+00 
0.0000000e+00 0.0000000e+00 0.0000000e+00 
0.0000000e+00 0.0000000e+00 0.0000000e+00 
0.0000000e+00 0.0000000e+00 0.0000000e+00 
0.0000000e+00 0.0000000e+00 0.0000000e+00 
0.0000000e+00 0.0000000e+00 0.0000000e+00 
0.0000000e+00 0.0000000e+00 0.0000000e+00 
0.0000000e+00 0.0000000e+00 0.0000000e+00 
0.0000000e+00 0.0000000e+00 0.0000000e+00 
0.0000000e+00 0.0000000e+00 0.0000000e+00 
0.0000000e+00 0.0000000e+00 0.0000000e+00 
0.0000000e+00 0.0000000e+00 0.0000000e+00 
0.0000000e+00 0.0000000e+00 0.0000000e+00 
REACTION 3 388  float
3.9242680e-02 1.0574193e-02 -7.6001089e-03 
-2.3703074e-06 1.0974981e-02 -3.9500734e-05 
-2.2680280e-06 1.1609365e-02 -5.8701803e-06 
-1.9119689e-06 1.2450237e-02 -4.0513219e-05 
-5.0921477e-06 1.3169544e-02 -1.3014231e-05 
-1.6711570e-06 1.4088623e-02 -3.6827107e-05 
-3.8721610e-06 1.4902374e-02 -1.0010915e-05 
3.9242680e-02 -1.0574921e-02 -7.6001089e-03 
-2.3703074e-06 -1.0976905e-02 -3.9500734e-05 
-2.2680280e-06 -1.1609668e-02 -5.8701803e-06 
-1.9119689e-06 -1.2452357e-02 -4.0513219e-05 
-5.0921477e-06 -1.3170242e-02 -1.3014231e-05 
-1.8635020e-06 1.5897618e-02 -4.1211948e-05 
-6.8691245e-06 1.6815466e-02 -1.7846766e-05 
-1.6711570e-06 -1.4090831e-02 -3.6827107e-05 
-3.8721610e-06 -1.4902991e-02 -1.0010915e-05 
-1.8635020e-06 -1.5900193e-02 -4.1211948e-05 
-6.8691245e-06 -1.6816632e-02 -1.7846766e-05 
-1.8512076e-06 1.7882098e-02 -3.9576217e-05 
-1.1963426e-05 1.8913575e-02 -3.0961992e-05 
-1.8512076e-06 -1.7884456e-02 -3.9576217e-05 
-1.1963426e-05 -1.8915607e-02 -3.0961992e-05 
-2.1331944e-06 2.0042343e-02 -3.6067355e-05 
-1.6337597e-05 2.1197524e-02 -4.1959898e-05 
-2.1331944e-06 -2.0044351e-02 -3.6067355e-05 
-1.6337597e-05 -2.1200353e-02 -4.1959898e-05 
-3.4589675e-06 2.2373057e-02 -4.8630498e-05 
-2.0998329e-05 2.3662262e-02 -5.4407359e-05 
-3.4589675e-06 -2.2375880e-02 -4.8630498e-05 
-2.0998329e-05 -2.3666108e-02 -5.4407359e-05 
-4.7906473e-06 2.4863286e-02 -6.6512450e-05 
-4.7906473e-06 -2.4866775e-02 -6.6512450e-05 
-2.4381082e-05 2.6295639e-02 -6.5676094e-05 
-2.4381082e-05 -2.6300611e-02 -6.5676094e-05 
-3.7703562e-06 2.7493953e-02 -7.0518113e-05 
-3.7703562e-06 -2.7497541e-02 -7.0518113e-05 
-2.5553259e-05 2.9077315e-02 -7.3439979e-05 
-2.5553259e-05 -2.9083565e-02 -7.3439979e-05 
-2.4340979e-06 3.0235878e-02 -6.8258639e-05 
-2.4340979e-06 -3.0240810e-02 -6.8258639e-05 
-2.6709155e-05 3.1976766e-02 -8.2921339e-05 
-2.6709155e-05 -3.1985149e-02 -8.2921339e-05 
-3.2229789e-06 3.3050532e-02 -7.2043134e-05 
-3.2229789e-06 -3.3057968e-02 -7.2043134e-05 
-2.4664298e-05 3.4953982e-02 -8.2844108e-05 
-2.4664298e-05 -3.4964170e-02 -8.2844108e-05 
-4.4361110e-06 3.5890056e-02 -8.4665559e-05 
-4.4361110e-06 -3.5899531e-02 -8.4665559e-05 
-1.6025484e-05 3.7958712e-02 -5.8512960e-05 
-1.6025484e-05 -3.7968371e-02 -5.8512960e-05 
-7.0014128e-06 3.8698202e-02 -9.6053012e-05 
-7.0014128e-06 -3.8704820e-02 -9.6053012e-05 
-1.4974774e-05 4.0926933e-02 -4.8425589e-05 
-1.4974774e-05 -4.0937657e-02 -4.8425589e-05 
-6.5225577e-06 4.1406146e-02 -9.8838389e-05 
-6.5225577e-06 -4.1408156e-02 -9.8838389e-05 
-2.1899451e-05 4.3786964e-02 -6.6786372e-05 
-2.1899451e-05 -4.3801312e-02 -6.6786372e-05 
-7.0397114e-06 4.3937665e-02 -1.1562882e-04 
-7.0397114e-06 -4.3938743e-02 -1.1562882e-04 
-2.1617398e-05 4.6464959e-02 -6.5390044e-05 
-2.1617398e-05 -4.6478342e-02 -6.5390044e-05 
-7.9428796e-06 4.6217492e-02 -1.3915313e-04 
-7.9428796e-06 -4.6218569e-02 -1.3915313e-04 
-1.8450658e-05 4.8878198e-02 -5.5142612e-05 
-1.8450658e-05 -4.8889298e-02 -5.5142612e-05 
-9.9404055e-06 4.8170826e-02 -1.6561372e-04 