# vtk DataFile Version 4.0
vtk output
ASCII
DATASET UNSTRUCTURED_GRID
POINTS 388 float
2.2500000e-01 0.0000000e+00 0.0000000e+00 
2.2449107e-01 0.0000000e+00 3.0050400e-05 
2.2448862e-01 0.0000000e+00 1.7110700e-04 
2.2391301e-01 0.0000000e+00 6.4182500e-05 
2.2390778e-01 0.0000000e+00 3.6545210e-04 
2.2325797e-01 0.0000000e+00 1.0286040e-04 
2.2324960e-01 0.0000000e+00 5.8567700e-04 
2.2500000e-01 -2.0000000e-03 0.0000000e+00 
2.2449107e-01 -2.0000000e-03 3.0050400e-05 
2.2448862e-01 -2.0000000e-03 1.7110700e-04 
2.2391301e-01 -2.0000000e-03 6.4182500e-05 
2.2390778e-01 -2.0000000e-03 3.6545210e-04 
2.2251765e-01 0.0000000e+00 1.4657370e-04 
2.2250574e-01 0.0000000e+00 8.3456920e-04 
2.2325797e-01 -2.0000000e-03 1.0286040e-04 
2.2324960e-01 -2.0000000e-03 5.8567700e-04 
2.2251765e-01 -2.0000000e-03 1.4657370e-04 
2.2250574e-01 -2.0000000e-03 8.3456920e-04 
2.2168344e-01 0.0000000e+00 1.9583050e-04 
2.2166755e-01 0.0000000e+00 1.1150213e-03 
2.2168344e-01 -2.0000000e-03 1.9583050e-04 
2.2166755e-01 -2.0000000e-03 1.1150213e-03 
2.2074660e-01 0.0000000e+00 2.5114740e-04 
2.2072626e-01 0.0000000e+00 1.4299735e-03 
2.2074660e-01 -2.0000000e-03 2.5114740e-04 
2.2072626e-01 -2.0000000e-03 1.4299735e-03 
2.1969847e-01 0.0000000e+00 3.1303560e-04 
2.1967316e-01 0.0000000e+00 1.7823360e-03 
2.1969847e-01 -2.0000000e-03 3.1303560e-04 
2.1967316e-01 -2.0000000e-03 1.7823360e-03 
2.1853077e-01 0.0000000e+00 3.8198350e-04 
2.1853077e-01 -2.0000000e-03 3.8198350e-04 
2.1849994e-01 0.0000000e+00 2.1748901e-03 
2.1849994e-01 -2.0000000e-03 2.1748901e-03 
2.1723599e-01 0.0000000e+00 4.5843550e-04 
2.1723599e-01 -2.0000000e-03 4.5843550e-04 
2.1719904e-01 0.0000000e+00 2.6101664e-03 
2.1719904e-01 -2.0000000e-03 2.6101664e-03 
2.1580776e-01 0.0000000e+00 5.4276720e-04 
2.1580776e-01 -2.0000000e-03 5.4276720e-04 
2.1576406e-01 0.0000000e+00 3.0903024e-03 
2.1576406e-01 -2.0000000e-03 3.0903024e-03 
2.1424137e-01 0.0000000e+00 6.3525640e-04 
2.1424137e-01 -2.0000000e-03 6.3525640e-04 
2.1419028e-01 0.0000000e+00 3.6168826e-03 
2.1419028e-01 -2.0000000e-03 3.6168826e-03 
2.1253427e-01 0.0000000e+00 7.3605430e-04 
2.1253427e-01 -2.0000000e-03 7.3605430e-04 
2.1247512e-01 0.0000000e+00 4.1907675e-03 
2.1247512e-01 -2.0000000e-03 4.1907675e-03 
2.1068657e-01 0.0000000e+00 8.4515420e-04 
2.1068657e-01 -2.0000000e-03 8.4515420e-04 
2.1061868e-01 0.0000000e+00 4.8119221e-03 
2.1061868e-01 -2.0000000e-03 4.8119221e-03 
2.0870151e-01 0.0000000e+00 9.6236450e-04 
2.0870151e-01 -2.0000000e-03 9.6236450e-04 
2.0862422e-01 0.0000000e+00 5.4792579e-03 
2.0862422e-01 -2.0000000e-03 5.4792579e-03 
2.0658586e-01 0.0000000e+00 1.0872857e-03 
2.0658586e-01 -2.0000000e-03 1.0872857e-03 
2.0649854e-01 0.0000000e+00 6.1905035e-03 
2.0649854e-01 -2.0000000e-03 6.1905035e-03 
2.0435014e-01 0.0000000e+00 1.2192962e-03 
2.0435014e-01 -2.0000000e-03 1.2192962e-03 
2.0425218e-01 0.0000000e+00 6.9421227e-03 
2.0425218e-01 -2.0000000e-03 6.9421227e-03 
2.0200871e-01 0.0000000e+00 1.3575488e-03 
2.0200871e-01 -2.0000000e-03 1.3575488e-03 
2.0189957e-01 0.0000000e+00 7.7292963e-03 
2.0189957e-01 -2.0000000e-03 7.7292963e-03 
1.9957956e-01 0.0000000e+00 1.5009810e-03 
1.9957956e-01 -2.0000000e-03 1.5009810e-03 
1.9945876e-01 0.0000000e+00 8.5459793e-03 
1.9945876e-01 -2.0000000e-03 8.5459793e-03 
1.9708391e-01 0.0000000e+00 1.6483401e-03 
1.9708391e-01 -2.0000000e-03 1.6483401e-03 
1.9694655e-01 0.0000000e+00 9.3714164e-03 
1.9694655e-01 -2.0000000e-03 9.3714161e-03 
1.9451177e-01 0.0000000e+00 1.5786032e-03 
1.9451177e-01 -2.0000000e-03 1.5786032e-03 
1.9444984e-01 0.0000000e+00 9.4997425e-03 
1.9444984e-01 -2.0000000e-03 9.4997423e-03 
1.9168266e-01 0.0000000e+00 1.4936791e-03 
1.9168266e-01 -2.0000000e-03 1.4936791e-03 
1.9170347e-01 0.0000000e+00 9.6409013e-03 
1.9170347e-01 -2.0000000e-03 9.6409011e-03 
1.8857063e-01 0.0000000e+00 1.4002627e-03 
1.8857063e-01 -2.0000000e-03 1.4002627e-03 
1.8868245e-01 0.0000000e+00 9.7961760e-03 
1.8868245e-01 -2.0000000e-03 9.7961758e-03 
1.8514741e-01 0.0000000e+00 1.2975046e-03 
1.8514741e-01 -2.0000000e-03 1.2975046e-03 
1.8535934e-01 0.0000000e+00 9.9669781e-03 
1.8535934e-01 -2.0000000e-03 9.9669779e-03 
1.8169597e-01 0.0000000e+00 1.1938996e-03 
1.8169597e-01 -2.0000000e-03 1.1938996e-03 
1.8170391e-01 0.0000000e+00 1.0154860e-02 
1.8170391e-01 -2.0000000e-03 1.0154860e-02 
1.7824453e-01 0.0000000e+00 1.0902946e-03 
1.7824453e-01 -2.0000000e-03 1.0902946e-03 
1.7804456e-01 0.0000000e+00 1.0342945e-02 
1.7804456e-01 -2.0000000e-03 1.0342945e-02 
1.7479309e-01 0.0000000e+00 9.8668960e-04 
1.7479309e-01 -2.0000000e-03 9.8668960e-04 
1.7438520e-01 0.0000000e+00 1.0531029e-02 
1.7438520e-01 -2.0000000e-03 1.0531029e-02 
1.7134165e-01 0.0000000e+00 8.8308460e-04 
1.7134165e-01 -2.0000000e-03 8.8308460e-04 
1.7072585e-01 0.0000000e+00 1.0719113e-02 
1.7072585e-01 -2.0000000e-03 1.0719113e-02 
1.6789021e-01 0.0000000e+00 7.7947960e-04 
1.6789021e-01 -2.0000000e-03 7.7947960e-04 
1.6706649e-01 0.0000000e+00 1.0907198e-02 
1.6706649e-01 -2.0000000e-03 1.0907198e-02 
1.6443877e-01 0.0000000e+00 6.7587460e-04 
1.6443877e-01 -2.0000000e-03 6.7587470e-04 
1.6340714e-01 0.0000000e+00 1.1095282e-02 
1.6340714e-01 -2.0000000e-03 1.1095282e-02 
1.6098733e-01 0.0000000e+00 5.7226970e-04 
1.6098733e-01 -2.0000000e-03 5.7226970e-04 
1.5974778e-01 0.0000000e+00 1.1283366e-02 
1.5974778e-01 -2.0000000e-03 1.1283366e-02 
1.5753589e-01 0.0000000e+00 4.6866470e-04 
1.5753589e-01 -2.0000000e-03 4.6866470e-04 
1.5608842e-01 0.0000000e+00 1.1471451e-02 
1.5608842e-01 -2.0000000e-03 1.1471450e-02 
1.5408445e-01 0.0000000e+00 3.6505970e-04 
1.5408445e-01 -2.0000000e-03 3.6505970e-04 
1.5242907e-01 0.0000000e+00 1.1659535e-02 
1.5242907e-01 -2.0000000e-03 1.1659535e-02 
1.5063301e-01 0.0000000e+00 2.6145470e-04 
1.5063301e-01 -2.0000000e-03 2.6145470e-04 
1.4876971e-01 0.0000000e+00 1.1847619e-02 
1.4876971e-01 -2.0000000e-03 1.1847619e-02 
1.4718157e-01 0.0000000e+00 1.5784970e-04 
1.4718157e-01 -2.0000000e-03 1.5784970e-04 
1.4511036e-01 0.0000000e+00 1.2035704e-02 
1.4511036e-01 -2.0000000e-03 1.2035703e-02 
1.4373013e-01 0.0000000e+00 5.4244700e-05 
1.4373013e-01 -2.0000000e-03 5.4244700e-05 
1.4145100e-01 0.0000000e+00 1.2223788e-02 
1.4145100e-01 -2.0000000e-03 1.2223788e-02 
1.4027869e-01 0.0000000e+00 -4.9360300e-05 
1.4027869e-01 -2.0000000e-03 -4.9360300e-05 
1.3779165e-01 0.0000000e+00 1.2411872e-02 
1.3779165e-01 -2.0000000e-03 1.2411872e-02 
1.3682725e-01 0.0000000e+00 -1.5296530e-04 
1.3682725e-01 -2.0000000e-03 -1.5296530e-04 
1.3337581e-01 0.0000000e+00 -2.5657020e-04 
1.3337581e-01 -2.0000000e-03 -2.5657020e-04 
1.3413229e-01 0.0000000e+00 1.2599957e-02 
1.3413229e-01 -2.0000000e-03 1.2599956e-02 
1.2992437e-01 0.0000000e+00 -3.6017520e-04 
1.2992437e-01 -2.0000000e-03 -3.6017520e-04 
1.3047294e-01 0.0000000e+00 1.2788041e-02 
1.3047294e-01 -2.0000000e-03 1.2788041e-02 
1.2647293e-01 0.0000000e+00 -4.6378020e-04 
1.2647293e-01 -2.0000000e-03 -4.6378020e-04 
1.2681358e-01 0.0000000e+00 1.2976125e-02 
1.2681358e-01 -2.0000000e-03 1.2976125e-02 
1.2302149e-01 0.0000000e+00 -5.6738520e-04 
1.2302149e-01 -2.0000000e-03 -5.6738520e-04 
1.2315422e-01 0.0000000e+00 1.3164209e-02 
1.2315422e-01 -2.0000000e-03 1.3164209e-02 
1.1957005e-01 0.0000000e+00 -6.7099020e-04 
1.1957005e-01 -2.0000000e-03 -6.7099020e-04 
1.1949487e-01 0.0000000e+00 1.3352294e-02 
1.1949487e-01 -2.0000000e-03 1.3352294e-02 
1.1611861e-01 0.0000000e+00 -7.7459520e-04 
1.1611861e-01 -2.0000000e-03 -7.7459520e-04 
1.1583551e-01 0.0000000e+00 1.3540378e-02 
1.1583551e-01 -2.0000000e-03 1.3540378e-02 
1.1266717e-01 0.0000000e+00 -8.7820020e-04 
1.1266717e-01 -2.0000000e-03 -8.7820020e-04 
1.1217616e-01 0.0000000e+00 1.3728462e-02 
1.1217616e-01 -2.0000000e-03 1.3728462e-02 
1.0921573e-01 0.0000000e+00 -9.8180510e-04 
1.0921573e-01 -2.0000000e-03 -9.8180510e-04 
1.0851680e-01 0.0000000e+00 1.3916547e-02 
1.0851680e-01 -2.0000000e-03 1.3916547e-02 
1.0576429e-01 0.0000000e+00 -1.0854101e-03 
1.0576429e-01 -2.0000000e-03 -1.0854101e-03 
1.0485745e-01 0.0000000e+00 1.4104631e-02 
1.0485745e-01 -2.0000000e-03 1.4104631e-02 
1.0231285e-01 0.0000000e+00 -1.1890151e-03 
1.0231285e-01 -2.0000000e-03 -1.1890151e-03 
1.0119809e-01 0.0000000e+00 1.4292715e-02 
1.0119809e-01 -2.0000000e-03 1.4292715e-02 
9.8861408e-02 0.0000000e+00 -1.2926201e-03 
9.8861408e-02 -2.0000000e-03 -1.2926201e-03 
9.7538735e-02 0.0000000e+00 1.4480800e-02 
9.7538735e-02 -2.0000000e-03 1.4480799e-02 
9.5409968e-02 0.0000000e+00 -1.3962251e-03 
9.5409968e-02 -2.0000000e-03 -1.3962251e-03 
9.3879379e-02 0.0000000e+00 1.4668884e-02 
9.3879379e-02 -2.0000000e-03 1.4668884e-02 
9.1958528e-02 0.0000000e+00 -1.4998301e-03 
9.1958528e-02 -2.0000000e-03 -1.4998301e-03 
9.0220024e-02 0.0000000e+00 1.4856968e-02 
9.0220024e-02 -2.0000000e-03 1.4856968e-02 
8.8507088e-02 0.0000000e+00 -1.6034351e-03 
8.8507088e-02 -2.0000000e-03 -1.6034351e-03 
8.6560668e-02 0.0000000e+00 1.5045053e-02 
8.6560668e-02 -2.0000000e-03 1.5045052e-02 
8.5055648e-02 0.0000000e+00 -1.7070400e-03 
8.5055648e-02 -2.0000000e-03 -1.7070400e-03 
8.2901313e-02 0.0000000e+00 1.5233137e-02 
8.2901313e-02 -2.0000000e-03 1.5233137e-02 
8.1604208e-02 0.0000000e+00 -1.8106450e-03 
8.1604208e-02 -2.0000000e-03 -1.8106450e-03 
7.9241957e-02 0.0000000e+00 1.5421221e-02 
7.9241957e-02 -2.0000000e-03 1.5421221e-02 
7.8152768e-02 0.0000000e+00 -1.9142500e-03 
7.8152768e-02 -2.0000000e-03 -1.9142500e-03 
7.5582602e-02 0.0000000e+00 1.5609306e-02 
7.5582602e-02 -2.0000000e-03 1.5609305e-02 
7.4701328e-02 0.0000000e+00 -2.0178550e-03 
7.4701328e-02 -2.0000000e-03 -2.0178550e-03 
7.1249888e-02 0.0000000e+00 -2.1214600e-03 
7.1249888e-02 -2.0000000e-03 -2.1214600e-03 
7.1923246e-02 0.0000000e+00 1.5797390e-02 
7.1923246e-02 -2.0000000e-03 1.5797390e-02 
6.7798448e-02 0.0000000e+00 -2.2250650e-03 
6.7798448e-02 -2.0000000e-03 -2.2250650e-03 
6.8263891e-02 0.0000000e+00 1.5985474e-02 
6.8263891e-02 -2.0000000e-03 1.5985474e-02 
[...]
POINT_DATA 388
FIELD FieldData 2
DISPLACEMENT 3 388  float
0.0000000e+00 0.0000000e+00 0.0000000e+00 
0.0000000e+00 0.0000000e+00 0.0000000e+00 
0.0000000e+00 0.0000000e+00 0.0000000e+00 
0.0000000e+00 0.0000000e+00 0.0000000e+00 
0.0000000e+00 0.0000000e+00 0.0000000e+00 
0.0000000e+00 0.0000000e+00 0.0000000e+00 
0.0000000e+00 0.0000000e+00 0.0000000e+00 
0.0000000e+00 0.0000000e+00 0.0000000e+00 
0.0000000e+00 0.0000000e+00 0.0000000e+00 
0.0000000e+00 0.0000000e+00 0.0000000e+00 
0.0000000e+00 0.0000000e+00 0.0000000e+00 
0.0000000e+00 0.0000000e+00 0.0000000e+00 
0.0000000e+00 0.0000000e+00 0.0000000e+00 
0.0000000e+00 0.0000000e+00 0.0000000e+00 
0.0000000e+00 0.0000000e+00 0.0000000e+00 
0.0000000e+00 0.0000000e+00 0.0000000e+00 
0.0000000e+00 0.0000000e+00 0.0000000e+00 
0.0000000e+00 0.0000000e+00 0.0000000e+00 
0.0000000e+00 0.0000000e+00 0.0000000e+00 
0.0000000e+00 0.0000000e+00 0.0000000e+00 
0.0000000e+00 0.0000000e+00 0.0000000e+00 
0.0000000e+00 0.0000000e+00 0.0000000e+00 
0.0000000e+00 0.0000000e+00 0.0000000e+00 
0.0000000e+00 0.0000000e+00 0.0000000e+00 
0.0000000e+00 0.0000000e+00 0.0000000e+00 
0.0000000e+00 0.0000000e+00 0.0000000e+00 
0.0000000e+00 0.0000000e+00 0.0000000e+00 
0.0000000e+00 0.0000000e+00 0.0000000e+00 
0.0000000e+00 0.0000000e+00 0.0000000e+00 
0.0000000e+00 0.0000000e+00 0.0000000e+00 
0.0000000e+00 0.0000000e+00 0.0000000e+00 
0.0000000e+00 0.0000000e+00 0.0000000e+00 
0.0000000e+00 0.0000000e+00 0.0000000e+00 
0.0000000e+00 0.0000000e+00 0.0000000e+00 
0.0000000e+00 0.0000000e+00 0.0000000e+00 
0.0000000e+00 0.0000000e+00 0.0000000e+00 
0.0000000e+00 0.0000000e+00 0.0000000e+00 
0.0000000e+00 0.0000000e+00 0.0000000e+00 
0.0000000e+00 0.0000000e+00 0.0000000e+00 
0.0000000e+00 0.0000000e+00 0.0000000e+00 
0.0000000e+00 0.0000000e+00 0.0000000e+00 
0.0000000e+00 0.0000000e+00 0.0000000e+00 
0.0000000e+00 0.0000000e+00 0.0000000e+00 
0.0000000e+00 0.0000000e+00 0.0000000e+00 
0.0000000e+00 0.0000000e+00 0.0000000e+00 
0.0000000e+00 0.0000000e+00 0.0000000e+00 
0.0000000e+00 0.0000000e+00 0.0000000e+00 
0.0000000e+00 0.0000000e+00 0.0000000e+00 
0.0000000e+00 0.0000000e+00 0.0000000e+00 
0.0000000e+00 0.0000000e+00 0.0000000e+00 
0.0000000e+00 0.0000000e+00 0.0000000e+00 
0.0000000e+00 0.0000000e+00 0.0000000e+00 
0.0000000e+00 0.0000000e+00 0.0000000e+00 
0.0000000e+00 0.0000000e+00 0.0000000e+00 
0.0000000e+00 0.0000000e+00 0.0000000e+00 
0.0000000e+00 0.0000000e+00 0.0000000e+00 
0.0000000e+00 0.0000000e+00 0.0000000e+00 
0.0000000e+00 0.0000000e+00 0.0000000e+00 
0.0000000e+00 0.0000000e+00 0.0000000e+00 
0.0000000e+00 0.0000000e+00 0.0000000e+00 
0.0000000e+00 0.0000000e+00 0.0000000e+00 
0.0000000e+00 0.0000000e+00 0.0000000e+00 
0.0000000e+00 0.0000000e+00 0.0000000e+00 
0.0000000e+00 0.0000000e+00 0.0000000e+00 
0.0000000e+00 0.0000000e+00 0.0000000e+00 
0.0000000e+00 0.0000000e+00 0.0000000e+00 
0.0000000e+00 0.0000000e+00 0.0000000e+00 
0.0000000e+00 0.0000000e+00 0.0000000e+00 
0.0000000e+00 0.0000000e+00 0.0000000e+00 
0.0000000e+00 0.0000000e+00 0.0000000e+00 
0.0000000e+00 0.0000000e+00 0.0000000e+00 
0.0000000e+00 0.0000000e+00 0.0000000e+00 
0.0000000e+00 0.0000000e+00 0.0000000e+00 
0.0000000e+00 0.0000000e+00 0.0000000e+00 
0.0000000e+00 0.0000000e+00 0.0000000e+00 
0.0000000e+00 0.0000000e+00 0.0000000e+00 
0.0000000e+00 0.0000000e+00 0.0000000e+00 
0.0000000e+00 0.0000000e+00 0.0000000e+00 
2.6664640e-05 0.0000000e+00 4.9815219e-04 
2.6664640e-05 0.0000000e+00 4.9815219e-04 
8.5887276e-05 0.0000000e+00 6.8888765e-04 
8.5887287e-05 0.0000000e+00 6.8888786e-04 
4.9497271e-05 0.0000000e+00 1.0142682e-03 
4.9497271e-05 0.0000000e+00 1.0142682e-03 
1.7693826e-04 0.0000000e+00 1.4362822e-03 
1.7693827e-04 0.0000000e+00 1.4362824e-03 
6.7654130e-05 0.0000000e+00 1.5327208e-03 
6.7654130e-05 0.0000000e+00 1.5327208e-03 
2.7327135e-04 0.0000000e+00 2.2468405e-03 
2.7327136e-04 0.0000000e+00 2.2468406e-03 
7.9912421e-05 0.0000000e+00 2.0407048e-03 
7.9912421e-05 0.0000000e+00 2.0407048e-03 
3.7278622e-04 0.0000000e+00 3.1187133e-03 
3.7278623e-04 0.0000000e+00 3.1187135e-03 
8.5653104e-05 0.0000000e+00 2.4898441e-03 
8.5653104e-05 0.0000000e+00 2.4898441e-03 
4.7298255e-04 0.0000000e+00 4.0485671e-03 
4.7298255e-04 0.0000000e+00 4.0485671e-03 
8.6306806e-05 0.0000000e+00 2.8809566e-03 
8.6306806e-05 0.0000000e+00 2.8809566e-03 
5.6241880e-04 0.0000000e+00 4.9440614e-03 
5.6241880e-04 0.0000000e+00 4.9440614e-03 
8.3208954e-05 0.0000000e+00 3.2197377e-03 
8.3208954e-05 0.0000000e+00 3.2197377e-03 
6.4079130e-04 0.0000000e+00 5.8022543e-03 
6.4079130e-04 0.0000000e+00 5.8022543e-03 
7.7502528e-05 0.0000000e+00 3.5133964e-03 
7.7502528e-05 0.0000000e+00 3.5133964e-03 
7.0874829e-04 0.0000000e+00 6.6239747e-03 
7.0874829e-04 0.0000000e+00 6.6239747e-03 
6.9950501e-05 0.0000000e+00 3.7664255e-03 
6.9950501e-05 0.0000000e+00 3.7664255e-03 
7.6604149e-04 0.0000000e+00 7.4068152e-03 
7.6604149e-04 0.0000000e+00 7.4068152e-03 
6.1007636e-05 0.0000000e+00 3.9784613e-03 
6.1007639e-05 0.0000000e+00 3.9784612e-03 
8.1172035e-04 0.0000000e+00 8.1453043e-03 
8.1172035e-04 0.0000000e+00 8.1453043e-03 
5.1239044e-05 0.0000000e+00 4.1546345e-03 
5.1239044e-05 0.0000000e+00 4.1546345e-03 
8.4545338e-04 0.0000000e+00 8.8356310e-03 
8.4545338e-04 0.0000000e+00 8.8356310e-03 
4.1136102e-05 0.0000000e+00 4.3078535e-03 
4.1136102e-05 0.0000000e+00 4.3078535e-03 
8.6790128e-04 0.0000000e+00 9.4776985e-03 
8.6790133e-04 0.0000000e+00 9.4776995e-03 
3.0879375e-05 0.0000000e+00 4.4439214e-03 
3.0879375e-05 0.0000000e+00 4.4439214e-03 
8.8001529e-04 0.0000000e+00 1.0072800e-02 
8.8001529e-04 0.0000000e+00 1.0072800e-02 
2.0542415e-05 0.0000000e+00 4.5587002e-03 
2.0542415e-05 0.0000000e+00 4.5587002e-03 
8.8211545e-04 0.0000000e+00 1.0619371e-02 
8.8211545e-04 0.0000000e+00 1.0619371e-02 
1.0245199e-05 0.0000000e+00 4.6534320e-03 
1.0245199e-05 0.0000000e+00 4.6534320e-03 
8.7398113e-04 0.0000000e+00 1.1112582e-02 
8.7398118e-04 0.0000000e+00 1.1112583e-02 
2.2195108e-08 0.0000000e+00 4.7370591e-03 
2.2195108e-08 0.0000000e+00 4.7370591e-03 
8.5556633e-04 0.0000000e+00 1.1547459e-02 
8.5556633e-04 0.0000000e+00 1.1547459e-02 
-1.0133302e-05 0.0000000e+00 4.8131856e-03 
-1.0133302e-05 0.0000000e+00 4.8131856e-03 
8.2774888e-04 0.0000000e+00 1.1923598e-02 
8.2774888e-04 0.0000000e+00 1.1923598e-02 
-2.0180535e-05 0.0000000e+00 4.8795667e-03 
-2.0180535e-05 0.0000000e+00 4.8795667e-03 
-3.0093745e-05 0.0000000e+00 4.9361593e-03 
-3.0093745e-05 0.0000000e+00 4.9361593e-03 
7.9199678e-04 0.0000000e+00 1.2244849e-02 
7.9199683e-04 0.0000000e+00 1.2244850e-02 
-3.9857691e-05 0.0000000e+00 4.9834927e-03 
-3.9857691e-05 0.0000000e+00 4.9834927e-03 
7.4904748e-04 0.0000000e+00 1.2510575e-02 
7.4904748e-04 0.0000000e+00 1.2510575e-02 
-4.9463392e-05 0.0000000e+00 5.0221794e-03 
-4.9463392e-05 0.0000000e+00 5.0221794e-03 
6.9888609e-04 0.0000000e+00 1.2712860e-02 
6.9888609e-04 0.0000000e+00 1.2712860e-02 
-5.8962603e-05 0.0000000e+00 5.0556360e-03 
-5.8962603e-05 0.0000000e+00 5.0556360e-03 
6.4202616e-04 0.0000000e+00 1.2845183e-02 
6.4202616e-04 0.0000000e+00 1.2845183e-02 
-6.8348332e-05 0.0000000e+00 5.0837784e-03 
-6.8348332e-05 0.0000000e+00 5.0837784e-03 
5.7976016e-04 0.0000000e+00 1.2907396e-02 
5.7976016e-04 0.0000000e+00 1.2907396e-02 
-7.7460915e-05 0.0000000e+00 5.1000504e-03 
-7.7460915e-05 0.0000000e+00 5.1000504e-03 
5.1345256e-04 0.0000000e+00 1.2900813e-02 
5.1345256e-04 0.0000000e+00 1.2900813e-02 
-8.6202561e-05 0.0000000e+00 5.1023297e-03 
-8.6202561e-05 0.0000000e+00 5.1023297e-03 
4.4430199e-04 0.0000000e+00 1.2823618e-02 
4.4430199e-04 0.0000000e+00 1.2823618e-02 
-9.4659734e-05 0.0000000e+00 5.0950618e-03 
-9.4659734e-05 0.0000000e+00 5.0950618e-03 
3.7358903e-04 0.0000000e+00 1.2671713e-02 
3.7358903e-04 0.0000000e+00 1.2671713e-02 
-1.0279777e-04 0.0000000e+00 5.0778921e-03 
-1.0279777e-04 0.0000000e+00 5.0778921e-03 
3.0284113e-04 0.0000000e+00 1.2440798e-02 
3.0284113e-04 0.0000000e+00 1.2440798e-02 
-1.1039259e-04 0.0000000e+00 5.0454101e-03 
-1.1039259e-04 0.0000000e+00 5.0454101e-03 
2.3372889e-04 0.0000000e+00 1.2130617e-02 
2.3372889e-04 0.0000000e+00 1.2130617e-02 
-1.1729890e-04 0.0000000e+00 4.9957166e-03 
-1.1729890e-04 0.0000000e+00 4.9957166e-03 
1.6768406e-04 0.0000000e+00 1.1746059e-02 
1.6768411e-04 0.0000000e+00 1.1746060e-02 
-1.2347103e-04 0.0000000e+00 4.9296067e-03 
-1.2347103e-04 0.0000000e+00 4.9296067e-03 
1.0579837e-04 0.0000000e+00 1.1292746e-02 
1.0579837e-04 0.0000000e+00 1.1292746e-02 
-1.2879082e-04 0.0000000e+00 4.8462539e-03 
-1.2879082e-04 0.0000000e+00 4.8462539e-03 
4.9177995e-05 0.0000000e+00 1.0772776e-02 
4.9177995e-05 0.0000000e+00 1.0772776e-02 
-1.3316660e-04 0.0000000e+00 4.7455484e-03 
-1.3316660e-04 0.0000000e+00 4.7455484e-03 
-9.7795830e-07 0.0000000e+00 1.0186325e-02 
-9.7790638e-07 0.0000000e+00 1.0186326e-02 
-1.3659664e-04 0.0000000e+00 4.6288508e-03 
-1.3659664e-04 0.0000000e+00 4.6288508e-03 
-4.3935948e-05 0.0000000e+00 9.5372977e-03 
-4.3935948e-05 0.0000000e+00 9.5372977e-03 
-1.3893580e-04 0.0000000e+00 4.4950802e-03 
-1.3893580e-04 0.0000000e+00 4.4950802e-03 
-7.9567950e-05 0.0000000e+00 8.8324765e-03 
-7.9567950e-05 0.0000000e+00 8.8324765e-03 
-1.4001485e-04 0.0000000e+00 4.3430298e-03 
-1.4001485e-04 0.0000000e+00 4.3430298e-03 
-1.0777264e-04 0.0000000e+00 8.0768398e-03 
-1.0777259e-04 0.0000000e+00 8.0768408e-03 
-1.3998588e-04 0.0000000e+00 4.1759707e-03 
-1.3998588e-04 0.0000000e+00 4.1759707e-03 
-1.3911461e-04 0.0000000e+00 3.9980469e-03 
-1.3911461e-04 0.0000000e+00 3.9980469e-03 
-1.2825366e-04 0.0000000e+00 7.2729242e-03 
-1.2825366e-04 0.0000000e+00 7.2729242e-03 
-1.3744916e-04 0.0000000e+00 3.8102799e-03 
-1.3744916e-04 0.0000000e+00 3.8102799e-03 
-1.4073365e-04 0.0000000e+00 6.4227963e-03 
-1.4073365e-04 0.0000000e+00 6.4227963e-03 
-1.3494899e-04 0.0000000e+00 3.6125280e-03 
-1.3494899e-04 0.0000000e+00 3.6125280e-03 
-1.4505451e-04 0.0000000e+00 5.5299153e-03 
-1.4505451e-04 0.0000000e+00 5.5299153e-03 
-1.3176631e-04 0.0000000e+00 3.4068698e-03 
-1.3176630e-04 0.0000000e+00 3.4068697e-03 
-1.4183517e-04 0.0000000e+00 4.6819596e-03 
-1.4183517e-04 0.0000000e+00 4.6819596e-03 
-1.3244196e-04 0.0000000e+00 3.8797502e-03 
-1.3244196e-04 0.0000000e+00 3.8797502e-03 
-1.2797718e-04 0.0000000e+00 3.1943661e-03 
-1.2797718e-04 0.0000000e+00 3.1943661e-03 
-1.1728843e-04 0.0000000e+00 3.1198581e-03 
-1.1728843e-04 0.0000000e+00 3.1198581e-03 
-1.2347370e-04 0.0000000e+00 2.9740046e-03 
-1.2347370e-04 0.0000000e+00 2.9740046e-03 
-9.7341663e-05 0.0000000e+00 2.4021393e-03 
-9.7341663e-05 0.0000000e+00 2.4021393e-03 
-1.1808215e-04 0.0000000e+00 2.7441417e-03 
-1.1808215e-04 0.0000000e+00 2.7441417e-03 
-7.4394302e-05 0.0000000e+00 1.7297638e-03 
-7.4394252e-05 0.0000000e+00 1.7297648e-03 
-5.0015302e-05 0.0000000e+00 1.1044449e-03 
-5.0015251e-05 0.0000000e+00 1.1044459e-03 
-1.1198677e-04 0.0000000e+00 2.5186966e-03 
-1.1198677e-04 0.0000000e+00 2.5186966e-03 
-2.5164649e-05 0.0000000e+00 5.2547692e-04 
-2.5164649e-05 0.0000000e+00 5.2547692e-04 
-1.0553940e-04 0.0000000e+00 2.3046853e-03 
-1.0553940e-04 0.0000000e+00 2.3046853e-03 
0.0000000e+00 0.0000000e+00 0.0000000e+00 
0.0000000e+00 0.0000000e+00 0.0000000e+00 
0.0000000e+00 0.0000000e+00 0.0000000e+00 
0.0000000e+00 0.0000000e+00 0.0000000e+00 
-9.9134032e-05 0.0000000e+00 2.1048138e-03 
-9.9134029e-05 0.0000000e+00 2.1048137e-03 
0.0000000e+00 0.0000000e+00 0.0000000e+00 
0.0000000e+00 0.0000000e+00 0.0000000e+00 
0.0000000e+00 0.0000000e+00 0.0000000e+00 
0.0000000e+00 0.0000000e+00 0.0000000e+00 
-9.2852981e-05 0.0000000e+00 1.9187161e-03 
-9.2852981e-05 0.0000000e+00 1.9187161e-03 
0.0000000e+00 0.0000000e+00 0.0000000e+00 
0.0000000e+00 0.0000000e+00 0.0000000e+00 
0.0000000e+00 0.0000000e+00 0.0000000e+00 
0.0000000e+00 0.0000000e+00 0.0000000e+00 
-8.6578703e-05 0.0000000e+00 1.7442263e-03 
-8.6578703e-05 0.0000000e+00 1.7442263e-03 
0.0000000e+00 0.0000000e+00 0.0000000e+00 
0.0000000e+00 0.0000000e+00 0.0000000e+00 
-8.0290308e-05 0.0000000e+00 1.5802230e-03 
-8.0290308e-05 0.0000000e+00 1.5802230e-03 
0.0000000e+00 0.0000000e+00 0.0000000e+00 
0.0000000e+00 0.0000000e+00 0.0000000e+00 
-7.6032628e-05 0.0000000e+00 1.4745466e-03 
-7.6032628e-05 0.0000000e+00 1.4745466e-03 
0.0000000e+00 0.0000000e+00 0.0000000e+00 
0.0000000e+00 0.0000000e+00 0.0000000e+00 
-7.1504703e-05 0.0000000e+00 1.3664774e-03 
-7.1504703e-05 0.0000000e+00 1.3664774e-03 
-6.6668724e-05 0.0000000e+00 1.2557224e-03 
-6.6668724e-05 0.0000000e+00 1.2557224e-03 
0.0000000e+00 0.0000000e+00 0.0000000e+00 
0.0000000e+00 0.0000000e+00 0.0000000e+00 
-6.1523132e-05 0.0000000e+00 1.1423174e-03 
-6.1523132e-05 0.0000000e+00 1.1423174e-03 
0.0000000e+00 0.0000000e+00 0.0000000e+00 
0.0000000e+00 0.0000000e+00 0.0000000e+00 
-5.6076742e-05 0.0000000e+00 1.0263829e-03 
-5.6076739e-05 0.0000000e+00 1.0263828e-03 
0.0000000e+00 0.0000000e+00 0.0000000e+00 
0.0000000e+00 0.0000000e+00 0.0000000e+00 
-5.0275877e-05 0.0000000e+00 9.0751750e-04 
-5.0275877e-05 0.0000000e+00 9.0751750e-04 
0.0000000e+00 0.0000000e+00 0.0000000e+00 
0.0000000e+00 0.0000000e+00 0.0000000e+00 
-4.4085774e-05 0.0000000e+00 7.8550903e-04 
-4.4085774e-05 0.0000000e+00 7.8550903e-04 
-3.7543674e-05 0.0000000e+00 6.6072243e-04 
-3.7543674e-05 0.0000000e+00 6.6072243e-04 
0.0000000e+00 0.0000000e+00 0.0000000e+00 
0.0000000e+00 0.0000000e+00 0.0000000e+00 
-3.0718034e-05 0.0000000e+00 5.3373006e-04 
-3.0718034e-05 0.0000000e+00 5.3373006e-04 
0.0000000e+00 0.0000000e+00 0.0000000e+00 
0.0000000e+00 0.0000000e+00 0.0000000e+00 
-2.3639681e-05 0.0000000e+00 4.0479471e-04 
-2.3639681e-05 0.0000000e+00 4.0479471e-04 
0.0000000e+00 0.0000000e+00 0.0000000e+00 
0.0000000e+00 0.0000000e+00 0.0000000e+00 
-1.6231764e-05 0.0000000e+00 2.7335727e-04 
-1.6231764e-05 0.0000000e+00 2.7335727e-04 
0.0000000e+00 0.0000000e+00 0.0000000e+00 
0.0000000e+00 0.0000000e+00 0.0000000e+00 
-8.3612723e-06 0.0000000e+00 1.3846638e-04 
-8.3612723e-06 0.0000000e+00 1.3846638e-04 
0.0000000e+00 0.0000000e+00 0.0000000e+00 
0.0000000e+00 0.0000000e+00 0.0000000e+00 
0.0000000e+00 0.0000000e+00 0.0000000e+00 
0.0000000e+00 0.0000000e+00 0.0000000e+00 
0.0000000e+00 0.0000000e+00 0.0000000e+00 
0.0000000e+00 0.0000000e+00 0.0000000e+00 
0.0000000e+00 0.0000000e+00 0.0000000e+00 
0.0000000e+00 0.0000000e+00 0.0000000e+00 
0.0000000e+00 0.0000000e+00 0.0000000e+00 
0.0000000e+00 0.0000000e+00 0.0000000e+00 
0.0000000e+00 0.0000000e+00 0.0000000e+00 
0.0000000e+00 0.0000000e+00 0.0000000e+00 
0.0000000e+00 0.0000000e+00 0.0000000e+00 
0.0000000e+00 0.0000000e+00 0.0000000e+00 
0.0000000e+00 0.0000000e+00 0.0000000e+00 
0.0000000e+00 0.0000000e+00 0.0000000e+00 
0.0000000e+00 0.0000000e+00 0.0000000e+00 
0.0000000e+00 0.0000000e+00 0.0000000e+00 
0.0000000e+00 0.0000000e+00 0.0000000e+00 
0.0000000e+00 0.0000000e+00 0.0000000e+00 
0.0000000e+00 0.0000000e+00 0.0000000e+00 
0.0000000e+00 0.0000000e+00 0.0000000e+00 
0.0000000e+00 0.0000000e+00 0.0000000e+00 
0.0000000e+00 0.0000000e+00 0.0000000e+00 
0.0000000e+00 0.0000000e+00 0.0000000e+00 
0.0000000e+00 0.0000000e+00 0.0000000e+00 
0.0000000e+00 0.0000000e+00 0.0000000e+00 
0.0000000e+00 0.0000000e+00 0.0000000e+00 
0.0000000e+00 0.0000000e+00 0.0000000e+00 
0.0000000e+00 0.0000000e+00 0.0000000e+00 
0.0000000e+00 0.0000000e+00 0.0000000e+00 
0.0000000e+00 0.0000000e+00 0.0000000e+00 
0.0000000e+00 0.0000000e+00 0.0000000e+00 
0.0000000e+00 0.0000000e+00 0.0000000e+00 
0.0000000e+00 0.0000000e+00 0.0000000e+00 
0.0000000e+00 0.0000000e+00 0.0000000e+00 
0.0000000e+00 0.0000000e+00 0.0000000e+00 
0.0000000e+00 0.0000000e+00 0.0000000e+00 
0.0000000e+00 0.0000000e+00 0.0000000e+00 
0.0000000e+00 0.0000000e+00 0.0000000e+00 
0.0000000e+00 0.0000000e+00 0.0000000e+00 
0.0000000e+00 0.0000000e+00 0.0000000e+00 
0.0000000e+00 0.0000000e+00 0.0000000e+00 
0.0000000e+00 0.0000000e+00 0.0000000e+00 
0.0000000e+00 0.0000000e+00 0.0000000e+00 
0.0000000e+00 0.0000000e+00 0.0000000e+00 
0.0000000e+00 0.0000000e+00 0.0000000e+00 
0.0000000e+00 0.0000000e+00 0.0000000e+00 
0.0000000e+00 0.0000000e+00 0.0000000e+00 
0.0000000e+00 0.0000000e+00 0.0000000e+00 
0.0000000e+00 0.0000000e+00 0.0000000e+00 
0.0000000e+00 0.0000000e+00 0.0000000e+00 
0.0000000e+00 0.0000000e+00 0.0000000e+00 
0.0000000e+00 0.0000000e+00 0.0000000e+00 
0.0000000e+00 0.0000000e+00 0.0000000e+00 
0.0000000e+00 0.0000000e+00 0.0000000e+00 
0.0000000e+00 0.0000000e+00 0.0000000e+00 
0.0000000e+00 0.0000000e+00 0.0000000e+00 
0.0000000e+00 0.0000000e+00 0.0000000e+00 
0.0000000e+00 0.0000000e+00 0.0000000e+00 
0.0000000e+00 0.0000000e+00 0.0000000e+00 
0.0000000e+00 0.0000000e+00 0.0000000e+00 
0.0000000e+00 0.0000000e+00 0.0000000e+00 
0.0000000e+00 0.0000000e+00 0.0000000e+00 
0.0000000e+00 0.0000000e+00 0.0000000e+00 
0.0000000e+00 0.0000000e+00 0.0000000e+00 
REACTION 3 388  float
3.9246196e-02 1.0574291e-02 -7.5939483e-03 
-2.5752980e-06 1.0974529e-02 -4.3550872e-05 
6.6490222e-06 1.1610043e-02 1.5271234e-05 
-2.0624317e-06 1.2449599e-02 -4.8549239e-05 
3.4226124e-06 1.3170201e-02 8.3001627e-06 
-1.9224252e-06 1.4087851e-02 -4.7568759e-05 
2.0174936e-06 1.4902885e-02 4.9673839e-06 
3.9246196e-02 -1.0574824e-02 -7.5939483e-03 
-2.5752980e-06 -1.0977356e-02 -4.3550872e-05 
6.6490222e-06 -1.1608989e-02 1.5271234e-05 
-2.0624317e-06 -1.2452995e-02 -4.8549239e-05 
3.4226124e-06 -1.3169585e-02 8.3001627e-06 
-2.0644824e-06 1.5896804e-02 -5.1257211e-05 
4.4744951e-07 1.6816095e-02 1.1156313e-06 
-1.9224252e-06 -1.4091602e-02 -4.7568759e-05 
2.0174936e-06 -1.4902480e-02 4.9673839e-06 
-2.0644824e-06 -1.5901008e-02 -5.1257211e-05 
4.4744951e-07 -1.6816004e-02 1.1156313e-06 
-2.5864629e-06 1.7880945e-02 -6.0476077e-05 
-1.1312851e-06 1.8914470e-02 -2.7879043e-06 
-2.5864629e-06 -1.7885610e-02 -6.0476077e-05 
-1.1312851e-06 -1.8914712e-02 -2.7879043e-06 
-4.2976541e-06 2.0040706e-02 -7.2420653e-05 
-4.4313252e-06 2.1198443e-02 -1.0779610e-05 
-4.2976541e-06 -2.0045987e-02 -7.2420653e-05 
-4.4313252e-06 -2.1199433e-02 -1.0779610e-05 
-6.5421578e-06 2.2371120e-02 -8.8352656e-05 
-1.0576534e-05 2.3662932e-02 -2.6147856e-05 
-6.5421578e-06 -2.2377816e-02 -8.8352656e-05 
-1.0576534e-05 -2.3665439e-02 -2.6147856e-05 
-8.2257352e-06 2.4861276e-02 -1.0903663e-04 
-8.2257352e-06 -2.4868785e-02 -1.0903663e-04 
-1.5661518e-05 2.6296053e-02 -4.0606138e-05 
-1.5661518e-05 -2.6300196e-02 -4.0606138e-05 
-6.1686789e-06 2.7491583e-02 -1.2424773e-04 
-6.1686789e-06 -2.7499911e-02 -1.2424773e-04 
-1.6481584e-05 2.9077822e-02 -4.6124595e-05 
-1.6481584e-05 -2.9083059e-02 -4.6124595e-05 
-3.6902692e-06 3.0232202e-02 -1.3046548e-04 
-3.6902692e-06 -3.0244487e-02 -1.3046548e-04 
-1.7021007e-05 3.1977417e-02 -5.2645948e-05 
-1.7021007e-05 -3.1984497e-02 -5.2645948e-05 
-5.4907212e-06 3.3045088e-02 -1.3779669e-04 
-5.4907212e-06 -3.3063412e-02 -1.3779669e-04 
-1.8648664e-05 3.4953802e-02 -6.4117025e-05 
-1.8648664e-05 -3.4964350e-02 -6.4117025e-05 
-7.7621708e-06 3.5883670e-02 -1.5436392e-04 
-7.7621708e-06 -3.5905917e-02 -1.5436392e-04 
-1.6435211e-05 3.7956481e-02 -6.2860383e-05 
-1.6435211e-05 -3.7970602e-02 -6.2860383e-05 
-1.4743702e-05 3.8693483e-02 -1.8728967e-04 
-1.4743702e-05 -3.8709538e-02 -1.8728967e-04 
-1.4635569e-05 4.0925198e-02 -4.9811291e-05 
-1.4635569e-05 -4.0939393e-02 -4.9811291e-05 
-1.4451967e-05 4.1403962e-02 -2.1903053e-04 
-1.4451967e-05 -4.1410339e-02 -2.1903053e-04 
-1.4113983e-05 4.3788234e-02 -4.1745161e-05 
-1.4113983e-05 -4.3800042e-02 -4.1745161e-05 
-1.3763551e-05 4.3936270e-02 -2.3715518e-04 
-1.3763551e-05 -4.3940138e-02 -2.3715518e-04 
-1.7304626e-05 4.6464955e-02 -4.9778239e-05 
-1.7304626e-05 -4.6478346e-02 -4.9778239e-05 
-1.4259329e-05 4.6216056e-02 -2.6049564e-04 
-1.4259329e-05 -4.6220004e-02 -2.6049564e-04 
-2.3599938e-05 4.8874464e-02 -6.9074693e-05 
-2.3599938e-05 -4.8893032e-02 -6.9074693e-05 
-1.7377056e-05 4.8169428e-02 -2.9870088e-04 
-1.7377056e-05 -4.8172974e-02 -2.9870088e-04 