# vtk DataFile Version 4.0
vtk output
ASCII
DATASET UNSTRUCTURED_GRID
POINTS 122 float
2.2500000e-01 0.0000000e+00 0.0000000e+00 
2.2500000e-01 -2.0000000e-03 0.0000000e+00 
1.9700000e-01 0.0000000e+00 1.7000000e-03 
1.9700000e-01 -2.0000000e-03 1.7000000e-03 
1.9700000e-01 0.0000000e+00 9.4000000e-03 
1.9700000e-01 -2.0000000e-03 9.4000000e-03 
1.8943000e-01 0.0000000e+00 9.7850000e-03 
1.8809500e-01 0.0000000e+00 1.4300000e-03 
1.8943000e-01 -2.0000000e-03 9.7850000e-03 
1.8809500e-01 -2.0000000e-03 1.4300000e-03 
1.8186000e-01 0.0000000e+00 1.0170000e-02 
1.8186000e-01 -2.0000000e-03 1.0170000e-02 
1.7919000e-01 0.0000000e+00 1.1600000e-03 
1.7919000e-01 -2.0000000e-03 1.1600000e-03 
1.7429000e-01 0.0000000e+00 1.0555000e-02 
1.7429000e-01 -2.0000000e-03 1.0555000e-02 
1.7028500e-01 0.0000000e+00 8.9000000e-04 
1.7028500e-01 -2.0000000e-03 8.9000000e-04 
1.6672000e-01 0.0000000e+00 1.0940000e-02 
1.6672000e-01 -2.0000000e-03 1.0940000e-02 
1.6138000e-01 0.0000000e+00 6.2000000e-04 
1.6138000e-01 -2.0000000e-03 6.2000000e-04 
1.5915000e-01 0.0000000e+00 1.1325000e-02 
1.5915000e-01 -2.0000000e-03 1.1325000e-02 
1.5247500e-01 0.0000000e+00 3.5000000e-04 
1.5247500e-01 -2.0000000e-03 3.5000000e-04 
1.5158000e-01 0.0000000e+00 1.1710000e-02 
1.5158000e-01 -2.0000000e-03 1.1710000e-02 
1.4357000e-01 0.0000000e+00 8.0000000e-05 
1.4357000e-01 -2.0000000e-03 8.0000000e-05 
1.4401000e-01 0.0000000e+00 1.2095000e-02 
1.4401000e-01 -2.0000000e-03 1.2095000e-02 
1.3644000e-01 0.0000000e+00 1.2480000e-02 
1.3644000e-01 -2.0000000e-03 1.2480000e-02 
1.3466500e-01 0.0000000e+00 -1.9000000e-04 
1.3466500e-01 -2.0000000e-03 -1.9000000e-04 
1.2887000e-01 0.0000000e+00 1.2865000e-02 
1.2887000e-01 -2.0000000e-03 1.2865000e-02 
1.2576000e-01 0.0000000e+00 -4.6000000e-04 
1.2576000e-01 -2.0000000e-03 -4.6000000e-04 
1.2130000e-01 0.0000000e+00 1.3250000e-02 
1.2130000e-01 -2.0000000e-03 1.3250000e-02 
1.1685500e-01 0.0000000e+00 -7.3000000e-04 
1.1685500e-01 -2.0000000e-03 -7.3000000e-04 
1.1373000e-01 0.0000000e+00 1.3635000e-02 
1.1373000e-01 -2.0000000e-03 1.3635000e-02 
1.0795000e-01 0.0000000e+00 -1.0000000e-03 
1.0795000e-01 -2.0000000e-03 -1.0000000e-03 
1.0616000e-01 0.0000000e+00 1.4020000e-02 
1.0616000e-01 -2.0000000e-03 1.4020000e-02 
9.9045000e-02 0.0000000e+00 -1.2700000e-03 
9.9045000e-02 -2.0000000e-03 -1.2700000e-03 
9.8590000e-02 0.0000000e+00 1.4405000e-02 
9.8590000e-02 -2.0000000e-03 1.4405000e-02 
9.1020000e-02 0.0000000e+00 1.4790000e-02 
9.1020000e-02 -2.0000000e-03 1.4790000e-02 
9.0140000e-02 0.0000000e+00 -1.5400000e-03 
9.0140000e-02 -2.0000000e-03 -1.5400000e-03 
8.3450000e-02 0.0000000e+00 1.5175000e-02 
8.3450000e-02 -2.0000000e-03 1.5175000e-02 
8.1235000e-02 0.0000000e+00 -1.8100000e-03 
8.1235000e-02 -2.0000000e-03 -1.8100000e-03 
7.5880000e-02 0.0000000e+00 1.5560000e-02 
7.5880000e-02 -2.0000000e-03 1.5560000e-02 
7.2330000e-02 0.0000000e+00 -2.0800000e-03 
7.2330000e-02 -2.0000000e-03 -2.0800000e-03 
6.8310000e-02 0.0000000e+00 1.5945000e-02 
6.8310000e-02 -2.0000000e-03 1.5945000e-02 
6.3425000e-02 0.0000000e+00 -2.3500000e-03 
6.3425000e-02 -2.0000000e-03 -2.3500000e-03 
6.0740000e-02 0.0000000e+00 1.6330000e-02 
6.0740000e-02 -2.0000000e-03 1.6330000e-02 
5.4520000e-02 0.0000000e+00 -2.6200000e-03 
5.4520000e-02 -2.0000000e-03 -2.6200000e-03 
5.3170000e-02 0.0000000e+00 1.6715000e-02 
5.3170000e-02 -2.0000000e-03 1.6715000e-02 
4.5615000e-02 0.0000000e+00 -2.8900000e-03 
4.5615000e-02 -2.0000000e-03 -2.8900000e-03 
4.5600000e-02 0.0000000e+00 1.7100000e-02 
4.5600000e-02 -2.0000000e-03 1.7100000e-02 
3.9437095e-02 0.0000000e+00 1.7147246e-02 
3.9437095e-02 -2.0000000e-03 1.7147246e-02 
3.6710000e-02 0.0000000e+00 -3.1600000e-03 
3.6710000e-02 -2.0000000e-03 -3.1600000e-03 
3.2950487e-02 0.0000000e+00 1.6732573e-02 
3.2950487e-02 -2.0000000e-03 1.6732573e-02 
2.7805000e-02 0.0000000e+00 -3.4300000e-03 
2.7805000e-02 -2.0000000e-03 -3.4300000e-03 
2.6954329e-02 0.0000000e+00 1.5782446e-02 
2.6954329e-02 -2.0000000e-03 1.5782446e-02 
2.1485588e-02 0.0000000e+00 1.4619751e-02 
2.1485588e-02 -2.0000000e-03 1.4619751e-02 
1.8900000e-02 0.0000000e+00 -3.7000000e-03 
1.8900000e-02 -2.0000000e-03 -3.7000000e-03 
1.6577982e-02 0.0000000e+00 1.3218783e-02 
1.6577982e-02 -2.0000000e-03 1.3218783e-02 
1.2261766e-02 0.0000000e+00 -3.6772060e-03 
1.2261766e-02 -2.0000000e-03 -3.6772060e-03 
1.2261766e-02 0.0000000e+00 1.1601316e-02 
1.2261766e-02 -2.0000000e-03 1.1601316e-02 
8.5635530e-03 0.0000000e+00 -3.4292840e-03 
8.5635530e-03 -2.0000000e-03 -3.4292840e-03 
8.5635530e-03 0.0000000e+00 9.8287860e-03 
8.5635530e-03 -2.0000000e-03 9.8287860e-03 
5.5061420e-03 0.0000000e+00 -2.9618110e-03 
5.5061420e-03 -2.0000000e-03 -2.9618110e-03 
5.5061420e-03 0.0000000e+00 7.9610410e-03 
5.5061420e-03 -2.0000000e-03 7.9610410e-03 
3.1083840e-03 0.0000000e+00 -2.3027950e-03 
3.1083840e-03 -2.0000000e-03 -2.3027950e-03 
3.1083840e-03 0.0000000e+00 6.0311380e-03 
3.1083840e-03 -2.0000000e-03 6.0311380e-03 
1.3850620e-03 0.0000000e+00 -1.6710370e-03 
1.3850620e-03 -2.0000000e-03 -1.6710370e-03 
1.3850620e-03 0.0000000e+00 4.3751030e-03 
1.3850620e-03 -2.0000000e-03 4.3751030e-03 
3.4680000e-04 0.0000000e+00 -8.2906700e-04 
3.4680000e-04 -2.0000000e-03 -8.2906700e-04 
3.4680000e-04 0.0000000e+00 2.4029600e-03 
3.4680000e-04 -2.0000000e-03 2.4029600e-03 
0.0000000e+00 0.0000000e+00 1.2000000e-03 
0.0000000e+00 -2.0000000e-03 1.2000000e-03 

CELLS 61 305
4 1 0 4 5
4 1 3 2 0
4 4 6 8 5
4 6 10 11 8
4 10 14 15 11
4 14 18 19 15
4 18 22 23 19
4 22 26 27 23
4 26 30 31 27
4 30 32 33 31
4 32 36 37 33
4 36 40 41 37
4 40 44 45 41
4 44 48 49 45
4 48 52 53 49
4 52 54 55 53
4 54 58 59 55
4 58 62 63 59
4 62 66 67 63
4 66 70 71 67
4 70 74 75 71
4 74 78 79 75
4 9 7 2 3
4 13 12 7 9
4 17 16 12 13
4 21 20 16 17
4 25 24 20 21
4 29 28 24 25
4 35 34 28 29
4 39 38 34 35
4 43 42 38 39
4 47 46 42 43
4 51 50 46 47
4 57 56 50 51
4 61 60 56 57
4 65 64 60 61
4 69 68 64 65
4 73 72 68 69
4 77 76 72 73
4 83 82 76 77
4 87 86 82 83
4 93 92 86 87
4 97 96 92 93
4 101 100 96 97
4 105 104 100 101
4 109 108 104 105
4 113 112 108 109
4 117 116 112 113
4 121 120 116 117
4 119 118 120 121
4 115 114 118 119
4 111 110 114 115
4 107 106 110 111
4 103 102 106 107
4 99 98 102 103
4 95 94 98 99
4 91 90 94 95
4 89 88 90 91
4 85 84 88 89
4 81 80 84 85
4 79 78 80 81

CELL_TYPES 61
9
9
9
9
9
9
9
9
9
9
9
9
9
9
9
9
9
9
9
9
9
9
9
9
9
9
9
9
9
9
9
9
9
9
9
9
9
9
9
9
9
9
9
9
9
9
9
9
9
9
9
9
9
9
9
9
9
9
9
9
9
POINT_DATA 122
FIELD FieldData 2
DISPLACEMENT 3 122  float
0.0000000e+00 0.0000000e+00 0.0000000e+00 
0.0000000e+00 0.0000000e+00 0.0000000e+00 
0.0000000e+00 0.0000000e+00 0.0000000e+00 
0.0000000e+00 0.0000000e+00 0.0000000e+00 
0.0000000e+00 0.0000000e+00 0.0000000e+00 
0.0000000e+00 0.0000000e+00 0.0000000e+00 
5.9740561e-20 0.0000000e+00 2.0413772e-19 
-3.8830011e-20 0.0000000e+00 4.4593062e-19 
6.2990737e-20 0.0000000e+00 2.7739339e-19 
-4.1673770e-20 0.0000000e+00 4.4024349e-19 
1.1179561e-19 0.0000000e+00 7.8382679e-19 
1.4889643e-19 0.0000000e+00 1.5132793e-18 
-1.6963226e-20 0.0000000e+00 2.8543012e-19 
-1.8408953e-20 0.0000000e+00 2.9718028e-19 
1.3246075e-19 0.0000000e+00 9.7038046e-19 
1.2784069e-19 0.0000000e+00 8.8173958e-19 
-1.8872407e-20 0.0000000e+00 3.8083495e-19 
-1.5618183e-20 0.0000000e+00 3.7457408e-19 
6.8575686e-20 0.0000000e+00 -5.3092905e-19 
7.3751401e-20 0.0000000e+00 -4.2026757e-19 
-3.3687109e-20 0.0000000e+00 -5.1895517e-19 
-3.1643834e-20 0.0000000e+00 -5.2250871e-19 
6.6321010e-20 0.0000000e+00 -7.7855883e-19 
7.1560872e-20 0.0000000e+00 -6.9894555e-19 
-8.1493793e-20 0.0000000e+00 3.2418231e-19 
-8.8530756e-20 0.0000000e+00 3.3431518e-19 
1.4110175e-19 0.0000000e+00 2.2795409e-19 
1.5906854e-19 0.0000000e+00 5.9804695e-19 
-8.8891819e-20 0.0000000e+00 4.2056312e-19 
-8.0251140e-20 0.0000000e+00 4.1073300e-19 
2.3009267e-19 0.0000000e+00 2.0545821e-18 
2.0299474e-19 0.0000000e+00 1.5144290e-18 
1.7501884e-19 0.0000000e+00 4.9492715e-19 
2.3384481e-19 0.0000000e+00 1.6367890e-18 
-1.0682042e-19 0.0000000e+00 8.5692810e-19 
-1.1280562e-19 0.0000000e+00 8.6287818e-19 
2.0092740e-19 0.0000000e+00 1.0273690e-18 
1.7866886e-19 0.0000000e+00 5.9448733e-19 
-7.9963495e-20 0.0000000e+00 9.2509078e-19 
-7.7316615e-20 0.0000000e+00 9.2431639e-19 
1.7260858e-19 0.0000000e+00 5.1776401e-19 
1.9393874e-19 0.0000000e+00 9.1951953e-19 
-9.5114300e-20 0.0000000e+00 7.5383066e-20 
-9.5852025e-20 0.0000000e+00 7.2890872e-20 
1.8780748e-19 0.0000000e+00 5.7845302e-19 
2.1484076e-19 0.0000000e+00 1.1457402e-18 
-1.5681820e-19 0.0000000e+00 7.0568083e-19 
-1.5605606e-19 0.0000000e+00 7.0938988e-19 
1.7489548e-19 0.0000000e+00 6.4164877e-19 
1.8177242e-19 0.0000000e+00 7.5177611e-19 
-1.6491359e-19 0.0000000e+00 5.2239255e-20 
-1.6300963e-19 0.0000000e+00 4.6992980e-20 
1.6835360e-19 0.0000000e+00 5.2708762e-19 
1.9148382e-19 0.0000000e+00 1.0070514e-18 
2.3016509e-19 0.0000000e+00 2.3286645e-18 
2.2916353e-19 0.0000000e+00 2.3066675e-18 
-1.7732863e-19 0.0000000e+00 1.5703980e-19 
-1.8115663e-19 0.0000000e+00 1.6052486e-19 
2.3952064e-19 0.0000000e+00 2.5562955e-18 
2.2703210e-19 0.0000000e+00 2.3010724e-18 
-1.2313019e-19 0.0000000e+00 3.9288226e-19 
-1.2292825e-19 0.0000000e+00 3.9404426e-19 
2.1361992e-19 0.0000000e+00 2.0736087e-18 
2.0744699e-19 0.0000000e+00 1.9486123e-18 
-8.8243771e-20 0.0000000e+00 2.9116421e-19 
-8.5508228e-20 0.0000000e+00 2.9027433e-19 
1.0376231e-19 0.0000000e+00 -7.8138955e-20 
5.2869692e-20 0.0000000e+00 -1.1261611e-18 
-8.3044710e-20 0.0000000e+00 3.0565597e-19 
-8.5556907e-20 0.0000000e+00 3.0497169e-19 
1.0691836e-19 0.0000000e+00 1.5848136e-20 
1.7319687e-22 0.0000000e+00 -2.1366167e-18 
-6.3495857e-20 0.0000000e+00 1.5364185e-19 
-5.9974159e-20 0.0000000e+00 1.5342210e-19 
-3.8085556e-20 0.0000000e+00 -1.5742429e-18 
-1.6310403e-20 0.0000000e+00 -1.1367892e-18 
-9.1730171e-20 0.0000000e+00 8.1215833e-19 
-9.5029300e-20 0.0000000e+00 8.1424432e-19 
0.0000000e+00 0.0000000e+00 0.0000000e+00 
0.0000000e+00 0.0000000e+00 0.0000000e+00 
0.0000000e+00 0.0000000e+00 0.0000000e+00 
0.0000000e+00 0.0000000e+00 0.0000000e+00 
-5.3633783e-20 0.0000000e+00 6.5659185e-20 
-5.2420814e-20 0.0000000e+00 6.0433792e-20 
0.0000000e+00 0.0000000e+00 0.0000000e+00 
0.0000000e+00 0.0000000e+00 0.0000000e+00 
-6.6148534e-20 0.0000000e+00 1.2195686e-19 
-6.7622246e-20 0.0000000e+00 1.2672885e-19 
0.0000000e+00 0.0000000e+00 0.0000000e+00 
0.0000000e+00 0.0000000e+00 0.0000000e+00 
0.0000000e+00 0.0000000e+00 0.0000000e+00 
0.0000000e+00 0.0000000e+00 0.0000000e+00 
0.0000000e+00 0.0000000e+00 0.0000000e+00 
0.0000000e+00 0.0000000e+00 0.0000000e+00 
0.0000000e+00 0.0000000e+00 0.0000000e+00 
0.0000000e+00 0.0000000e+00 0.0000000e+00 
0.0000000e+00 0.0000000e+00 0.0000000e+00 
0.0000000e+00 0.0000000e+00 0.0000000e+00 
0.0000000e+00 0.0000000e+00 0.0000000e+00 
0.0000000e+00 0.0000000e+00 0.0000000e+00 
0.0000000e+00 0.0000000e+00 0.0000000e+00 
0.0000000e+00 0.0000000e+00 0.0000000e+00 
0.0000000e+00 0.0000000e+00 0.0000000e+00 
0.0000000e+00 0.0000000e+00 0.0000000e+00 
0.0000000e+00 0.0000000e+00 0.0000000e+00 
0.0000000e+00 0.0000000e+00 0.0000000e+00 
0.0000000e+00 0.0000000e+00 0.0000000e+00 
0.0000000e+00 0.0000000e+00 0.0000000e+00 
0.0000000e+00 0.0000000e+00 0.0000000e+00 
0.0000000e+00 0.0000000e+00 0.0000000e+00 
0.0000000e+00 0.0000000e+00 0.0000000e+00 
0.0000000e+00 0.0000000e+00 0.0000000e+00 
0.0000000e+00 0.0000000e+00 0.0000000e+00 
0.0000000e+00 0.0000000e+00 0.0000000e+00 
0.0000000e+00 0.0000000e+00 0.0000000e+00 
0.0000000e+00 0.0000000e+00 0.0000000e+00 
0.0000000e+00 0.0000000e+00 0.0000000e+00 
0.0000000e+00 0.0000000e+00 0.0000000e+00 
0.0000000e+00 0.0000000e+00 0.0000000e+00 
0.0000000e+00 0.0000000e+00 0.0000000e+00 
0.0000000e+00 0.0000000e+00 0.0000000e+00 
0.0000000e+00 0.0000000e+00 0.0000000e+00 
REACTION 3 122  float
3.9234705e-02 5.8047999e-01 -7.6378412e-03 
3.9234705e-02 -5.8047999e-01 -7.6378412e-03 
2.7794519e-05 3.7256337e-01 1.8327216e-03 
2.7794519e-05 -3.7256337e-01 1.8327216e-03 
1.0222173e-03 3.7412449e-01 5.3921040e-03 
1.0222173e-03 -3.7412449e-01 5.3921040e-03 
4.5102810e-17 1.5280844e-01 -2.9923980e-17 
-0.0000000e+00 1.7960730e-01 -7.5894152e-19 
-4.8572257e-17 -1.5280844e-01 2.7972416e-17 
1.0408341e-17 -1.7960730e-01 -3.2526065e-19 
1.6306401e-16 1.5280844e-01 -1.0516761e-16 
-1.6653345e-16 -1.5280844e-01 9.6060312e-17 
-3.4694470e-18 1.7960730e-01 5.4210109e-19 
-0.0000000e+00 -1.7960730e-01 -0.0000000e+00 
1.0755286e-16 1.5280844e-01 -7.5460471e-17 
-1.0408341e-16 -1.5280844e-01 8.8470897e-17 
-0.0000000e+00 1.7960730e-01 -0.0000000e+00 
-1.0408341e-17 -1.7960730e-01 -5.4210109e-19 
1.7347235e-17 1.5280844e-01 -1.0842022e-17 
-1.7347235e-17 -1.5280844e-01 6.5052130e-18 
3.4694470e-18 1.7960730e-01 8.6736174e-19 
-0.0000000e+00 -1.7960730e-01 -9.7578196e-19 
3.4694470e-18 1.5280844e-01 1.3660947e-17 
-0.0000000e+00 -1.5280844e-01 -6.2883726e-18 
-3.4694470e-18 1.7960730e-01 5.4210109e-19 
1.0408341e-17 -1.7960730e-01 1.0842022e-19 
-3.4694470e-18 1.5280844e-01 8.8904578e-18 
-3.4694470e-18 -1.5280844e-01 -1.7564075e-17 
6.9388939e-18 1.7960730e-01 8.6736174e-19 
-1.0408341e-17 -1.7960730e-01 -1.1926224e-18 
6.9388939e-17 1.5280844e-01 -6.5485811e-17 
-6.5919492e-17 -1.5280844e-01 6.8955258e-17 
8.3266727e-17 1.5280844e-01 -3.1225023e-17 
-9.7144515e-17 -1.5280844e-01 2.5804012e-17 
-0.0000000e+00 1.7960730e-01 6.5052130e-19 
1.0408341e-17 -1.7960730e-01 -2.1684043e-19 
-1.3877788e-17 1.5280844e-01 1.3660947e-17 
1.7347235e-17 -1.5280844e-01 -9.9746600e-18 
-6.9388939e-18 1.7960730e-01 -1.0842022e-19 
-1.0408341e-17 -1.7960730e-01 -2.1684043e-19 
1.6306401e-16 1.5280844e-01 -1.0885390e-16 
-1.5265567e-16 -1.5280844e-01 1.1080546e-16 
-0.0000000e+00 1.7960730e-01 -2.1684043e-19 
-0.0000000e+00 -1.7960730e-01 -0.0000000e+00 
1.6653345e-16 1.5280844e-01 -1.0646865e-16 
-1.6653345e-16 -1.5280844e-01 1.1123914e-16 
3.4694470e-18 1.7960730e-01 2.1684043e-19 
-0.0000000e+00 -1.7960730e-01 -0.0000000e+00 
3.8163916e-17 1.5280844e-01 -1.2576745e-17 
-3.4694470e-17 -1.5280844e-01 6.7220535e-18 
3.4694470e-18 1.7960730e-01 -0.0000000e+00 
-0.0000000e+00 -1.7960730e-01 3.2526065e-19 
-0.0000000e+00 1.5280844e-01 2.2117724e-17 
-6.9388939e-18 -1.5280844e-01 -2.2768246e-17 
8.6736174e-17 1.5280844e-01 -7.1123663e-17 
-8.3266727e-17 -1.5280844e-01 7.2424705e-17 
3.4694470e-18 1.7960730e-01 -4.3368087e-19 
1.3877788e-17 -1.7960730e-01 -4.3368087e-19 
3.4694470e-17 1.5280844e-01 -4.9005938e-17 
-3.4694470e-17 -1.5280844e-01 4.6403853e-17 
-3.4694470e-18 1.7960730e-01 4.3368087e-19 
-3.4694470e-18 -1.7960730e-01 5.4210109e-19 
7.9797280e-17 1.5280844e-01 -9.5192951e-17 
-8.3266727e-17 -1.5280844e-01 9.8445557e-17 
-0.0000000e+00 1.7960730e-01 -0.0000000e+00 
-6.9388939e-18 -1.7960730e-01 -1.0842022e-19 
-7.9797280e-17 1.5280844e-01 -2.2117724e-17 
2.4286129e-17 -1.5280844e-01 3.3393427e-17 
-0.0000000e+00 1.7960730e-01 6.5052130e-19 
3.4694470e-18 -1.7960730e-01 6.5052130e-19 
-2.9490299e-16 1.5280844e-01 1.1817804e-16 
3.3306691e-16 -1.5280844e-01 -1.4268101e-16 
-0.0000000e+00 1.7960730e-01 -1.3010426e-18 
-6.9388939e-18 -1.7960730e-01 -1.5178830e-18 
-6.2450045e-17 1.5280844e-01 6.1799524e-17 
7.2858386e-17 -1.5280844e-01 -4.2067044e-17 
-0.0000000e+00 1.7960730e-01 9.7578196e-19 
6.9388939e-18 -1.7960730e-01 9.7578196e-19 
2.5430102e-05 1.3852813e-01 8.6944112e-04 
2.5430102e-05 -1.3852813e-01 8.6944112e-04 
-4.0476049e-05 1.2764239e-01 1.4407000e-03 
-4.0476049e-05 -1.2764239e-01 1.4407000e-03 
-3.4694470e-18 1.7960730e-01 -5.4210109e-19 
-3.4694470e-18 -1.7960730e-01 -1.0842022e-19 
-2.0735472e-04 1.2671384e-01 1.8689540e-03 
-2.0735472e-04 -1.2671384e-01 1.8689540e-03 
6.9388939e-18 1.7960730e-01 -0.0000000e+00 
1.0408341e-17 -1.7960730e-01 -3.2526065e-19 
-1.9232526e-04 1.1755237e-01 1.0373514e-03 
-1.9232526e-04 -1.1755237e-01 1.0373514e-03 
-3.3367183e-04 1.0780187e-01 1.3415171e-03 
-3.3367183e-04 -1.0780187e-01 1.3415171e-03 
9.1413632e-06 1.5671744e-01 -6.8019522e-04 
9.1413632e-06 -1.5671744e-01 -6.8019522e-04 
-5.0758216e-04 9.7906899e-02 1.5404001e-03 
-5.0758216e-04 -9.7906899e-02 1.5404001e-03 
-4.5029929e-05 1.0427545e-01 -1.2792420e-03 
-4.5029929e-05 -1.0427545e-01 -1.2792420e-03 
-6.9828616e-04 8.7800665e-02 1.6390435e-03 
-6.9828616e-04 -8.7800665e-02 1.6390435e-03 
-1.8644755e-04 6.8538519e-02 -1.6985535e-03 
-1.8644755e-04 -6.8538519e-02 -1.6985535e-03 
-9.7586534e-04 7.7452933e-02 1.7962553e-03 
-9.7586534e-04 -7.7452933e-02 1.7962553e-03 
-4.8926152e-04 5.6242530e-02 -2.2957657e-03 
-4.8926152e-04 -5.6242530e-02 -2.2957657e-03 
-1.4989712e-03 6.7140035e-02 2.1308350e-03 
-1.4989712e-03 -6.7140035e-02 2.1308350e-03 
-5.1094575e-04 4.3567226e-02 -1.5961616e-03 
-5.1094575e-04 -4.3567226e-02 -1.5961616e-03 
-1.1686440e-03 5.5117326e-02 1.3281542e-03 
-1.1686440e-03 -5.5117326e-02 1.3281542e-03 
-3.2698035e-03 3.1976000e-02 -5.7590978e-03 
-3.2698035e-03 -3.1976000e-02 -5.7590978e-03 
-5.1447145e-03 4.6557423e-02 3.8701980e-03 
-5.1447145e-03 -4.6557423e-02 3.8701980e-03 
-1.2261978e-02 3.4224028e-02 -7.1737940e-03 
-1.2261978e-02 -3.4224028e-02 -7.1737940e-03 
-3.8070452e-03 3.5085494e-02 1.5322313e-03 
-3.8070452e-03 -3.5085494e-02 1.5322313e-03 
-8.9808861e-03 3.3369257e-02 5.0074451e-04 
-8.9808861e-03 -3.3369257e-02 5.0074451e-04 
CELL_DATA 61
FIELD FieldData 0
