# vtk DataFile Version 4.0
vtk output
ASCII
DATASET UNSTRUCTURED_GRID
POINTS 388 float
2.2500000e-01 0.0000000e+00 0.0000000e+00 
2.2449107e-01 0.0000000e+00 3.0050400e-05 
2.2448862e-01 0.0000000e+00 1.7110700e-04 
2.2391301e-01 0.0000000e+00 6.4182500e-05 
2.2390778e-01 0.0000000e+00 3.6545210e-04 
2.2325797e-01 0.0000000e+00 1.0286040e-04 
2.2324960e-01 0.0000000e+00 5.8567700e-04 
2.2500000e-01 -2.0000000e-03 0.0000000e+00 
2.2449107e-01 -2.0000000e-03 3.0050400e-05 
2.2448862e-01 -2.0000000e-03 1.7110700e-04 
2.2391301e-01 -2.0000000e-03 6.4182500e-05 
2.2390778e-01 -2.0000000e-03 3.6545210e-04 
2.2251765e-01 0.0000000e+00 1.4657370e-04 
2.2250574e-01 0.0000000e+00 8.3456920e-04 
2.2325797e-01 -2.0000000e-03 1.0286040e-04 
2.2324960e-01 -2.0000000e-03 5.8567700e-04 
2.2251765e-01 -2.0000000e-03 1.4657370e-04 
2.2250574e-01 -2.0000000e-03 8.3456920e-04 
2.2168344e-01 0.0000000e+00 1.9583050e-04 
2.2166755e-01 0.0000000e+00 1.1150213e-03 
2.2168344e-01 -2.0000000e-03 1.9583050e-04 
2.2166755e-01 -2.0000000e-03 1.1150213e-03 
2.2074660e-01 0.0000000e+00 2.5114740e-04 
2.2072626e-01 0.0000000e+00 1.4299735e-03 
2.2074660e-01 -2.0000000e-03 2.5114740e-04 
2.2072626e-01 -2.0000000e-03 1.4299735e-03 
2.1969847e-01 0.0000000e+00 3.1303560e-04 
2.1967316e-01 0.0000000e+00 1.7823360e-03 
2.1969847e-01 -2.0000000e-03 3.1303560e-04 
2.1967316e-01 -2.0000000e-03 1.7823360e-03 
2.1853077e-01 0.0000000e+00 3.8198350e-04 
2.1853077e-01 -2.0000000e-03 3.8198350e-04 
2.1849994e-01 0.0000000e+00 2.1748901e-03 
2.1849994e-01 -2.0000000e-03 2.1748901e-03 
2.1723599e-01 0.0000000e+00 4.5843550e-04 
2.1723599e-01 -2.0000000e-03 4.5843550e-04 
2.1719904e-01 0.0000000e+00 2.6101664e-03 
2.1719904e-01 -2.0000000e-03 2.6101664e-03 
2.1580776e-01 0.0000000e+00 5.4276720e-04 
2.1580776e-01 -2.0000000e-03 5.4276720e-04 
2.1576406e-01 0.0000000e+00 3.0903024e-03 
2.1576406e-01 -2.0000000e-03 3.0903024e-03 
2.1424137e-01 0.0000000e+00 6.3525640e-04 
2.1424137e-01 -2.0000000e-03 6.3525640e-04 
2.1419028e-01 0.0000000e+00 3.6168826e-03 
2.1419028e-01 -2.0000000e-03 3.6168826e-03 
2.1253427e-01 0.0000000e+00 7.3605430e-04 
2.1253427e-01 -2.0000000e-03 7.3605430e-04 
2.1247512e-01 0.0000000e+00 4.1907675e-03 
2.1247512e-01 -2.0000000e-03 4.1907675e-03 
2.1068657e-01 0.0000000e+00 8.4515420e-04 
2.1068657e-01 -2.0000000e-03 8.4515420e-04 
2.1061868e-01 0.0000000e+00 4.8119221e-03 
2.1061868e-01 -2.0000000e-03 4.8119221e-03 
2.0870151e-01 0.0000000e+00 9.6236450e-04 
2.0870151e-01 -2.0000000e-03 9.6236450e-04 
2.0862422e-01 0.0000000e+00 5.4792579e-03 
2.0862422e-01 -2.0000000e-03 5.4792579e-03 
2.0658586e-01 0.0000000e+00 1.0872857e-03 
2.0658586e-01 -2.0000000e-03 1.0872857e-03 
2.0649854e-01 0.0000000e+00 6.1905035e-03 
2.0649854e-01 -2.0000000e-03 6.1905035e-03 
2.0435014e-01 0.0000000e+00 1.2192962e-03 
2.0435014e-01 -2.0000000e-03 1.2192962e-03 
2.0425218e-01 0.0000000e+00 6.9421227e-03 
2.0425218e-01 -2.0000000e-03 6.9421227e-03 
2.0200871e-01 0.0000000e+00 1.3575488e-03 
2.0200871e-01 -2.0000000e-03 1.3575488e-03 
2.0189957e-01 0.0000000e+00 7.7292963e-03 
2.0189957e-01 -2.0000000e-03 7.7292963e-03 
1.9957956e-01 0.0000000e+00 1.5009810e-03 
1.9957956e-01 -2.0000000e-03 1.5009810e-03 
1.9945876e-01 0.0000000e+00 8.5459793e-03 
1.9945876e-01 -2.0000000e-03 8.5459793e-03 
1.9708391e-01 0.0000000e+00 1.6483401e-03 
1.9708391e-01 -2.0000000e-03 1.6483401e-03 
1.9694655e-01 0.0000000e+00 9.3714164e-03 
1.9694655e-01 -2.0000000e-03 9.3714161e-03 
1.9451177e-01 0.0000000e+00 1.5786032e-03 
1.9451177e-01 -2.0000000e-03 1.5786032e-03 
1.9444984e-01 0.0000000e+00 9.4997425e-03 
1.9444984e-01 -2.0000000e-03 9.4997423e-03 
1.9168266e-01 0.0000000e+00 1.4936791e-03 
1.9168266e-01 -2.0000000e-03 1.4936791e-03 
1.9170347e-01 0.0000000e+00 9.6409013e-03 
1.9170347e-01 -2.0000000e-03 9.6409011e-03 
1.8857063e-01 0.0000000e+00 1.4002627e-03 
1.8857063e-01 -2.0000000e-03 1.4002627e-03 
1.8868245e-01 0.0000000e+00 9.7961760e-03 
1.8868245e-01 -2.0000000e-03 9.7961758e-03 
1.8514741e-01 0.0000000e+00 1.2975046e-03 
1.8514741e-01 -2.0000000e-03 1.2975046e-03 
1.8535934e-01 0.0000000e+00 9.9669781e-03 
1.8535934e-01 -2.0000000e-03 9.9669779e-03 
1.8169597e-01 0.0000000e+00 1.1938996e-03 
1.8169597e-01 -2.0000000e-03 1.1938996e-03 
1.8170391e-01 0.0000000e+00 1.0154860e-02 
1.8170391e-01 -2.0000000e-03 1.0154860e-02 
1.7824453e-01 0.0000000e+00 1.0902946e-03 
1.7824453e-01 -2.0000000e-03 1.0902946e-03 
1.7804456e-01 0.0000000e+00 1.0342945e-02 
1.7804456e-01 -2.0000000e-03 1.0342945e-02 
1.7479309e-01 0.0000000e+00 9.8668960e-04 
1.7479309e-01 -2.0000000e-03 9.8668960e-04 
1.7438520e-01 0.0000000e+00 1.0531029e-02 
1.7438520e-01 -2.0000000e-03 1.0531029e-02 
1.7134165e-01 0.0000000e+00 8.8308460e-04 
1.7134165e-01 -2.0000000e-03 8.8308460e-04 
1.7072585e-01 0.0000000e+00 1.0719113e-02 
1.7072585e-01 -2.0000000e-03 1.0719113e-02 
1.6789021e-01 0.0000000e+00 7.7947960e-04 
1.6789021e-01 -2.0000000e-03 7.7947960e-04 
1.6706649e-01 0.0000000e+00 1.0907198e-02 
1.6706649e-01 -2.0000000e-03 1.0907198e-02 
1.6443877e-01 0.0000000e+00 6.7587460e-04 
1.6443877e-01 -2.0000000e-03 6.7587470e-04 
1.6340714e-01 0.0000000e+00 1.1095282e-02 
1.6340714e-01 -2.0000000e-03 1.1095282e-02 
1.6098733e-01 0.0000000e+00 5.7226970e-04 
1.6098733e-01 -2.0000000e-03 5.7226970e-04 
1.5974778e-01 0.0000000e+00 1.1283366e-02 
1.5974778e-01 -2.0000000e-03 1.1283366e-02 
1.5753589e-01 0.0000000e+00 4.6866470e-04 
1.5753589e-01 -2.0000000e-03 4.6866470e-04 
1.5608842e-01 0.0000000e+00 1.1471451e-02 
1.5608842e-01 -2.0000000e-03 1.1471450e-02 
1.5408445e-01 0.0000000e+00 3.6505970e-04 
1.5408445e-01 -2.0000000e-03 3.6505970e-04 
1.5242907e-01 0.0000000e+00 1.1659535e-02 
1.5242907e-01 -2.0000000e-03 1.1659535e-02 
1.5063301e-01 0.0000000e+00 2.6145470e-04 
1.5063301e-01 -2.0000000e-03 2.6145470e-04 
1.4876971e-01 0.0000000e+00 1.1847619e-02 
1.4876971e-01 -2.0000000e-03 1.1847619e-02 
1.4718157e-01 0.0000000e+00 1.5784970e-04 
1.4718157e-01 -2.0000000e-03 1.5784970e-04 
1.4511036e-01 0.0000000e+00 1.2035704e-02 
1.4511036e-01 -2.0000000e-03 1.2035703e-02 
1.4373013e-01 0.0000000e+00 5.4244700e-05 
1.4373013e-01 -2.0000000e-03 5.4244700e-05 
1.4145100e-01 0.0000000e+00 1.2223788e-02 
1.4145100e-01 -2.0000000e-03 1.2223788e-02 
1.4027869e-01 0.0000000e+00 -4.9360300e-05 
1.4027869e-01 -2.0000000e-03 -4.9360300e-05 
1.3779165e-01 0.0000000e+00 1.2411872e-02 
1.3779165e-01 -2.0000000e-03 1.2411872e-02 
1.3682725e-01 0.0000000e+00 -1.5296530e-04 
1.3682725e-01 -2.0000000e-03 -1.5296530e-04 
1.3337581e-01 0.0000000e+00 -2.5657020e-04 
1.3337581e-01 -2.0000000e-03 -2.5657020e-04 
1.3413229e-01 0.0000000e+00 1.2599957e-02 
1.3413229e-01 -2.0000000e-03 1.2599956e-02 
1.2992437e-01 0.0000000e+00 -3.6017520e-04 
1.2992437e-01 -2.0000000e-03 -3.6017520e-04 
1.3047294e-01 0.0000000e+00 1.2788041e-02 
1.3047294e-01 -2.0000000e-03 1.2788041e-02 
1.2647293e-01 0.0000000e+00 -4.6378020e-04 
1.2647293e-01 -2.0000000e-03 -4.6378020e-04 
1.2681358e-01 0.0000000e+00 1.2976125e-02 
1.2681358e-01 -2.0000000e-03 1.2976125e-02 
1.2302149e-01 0.0000000e+00 -5.6738520e-04 
1.2302149e-01 -2.0000000e-03 -5.6738520e-04 
1.2315422e-01 0.0000000e+00 1.3164209e-02 
1.2315422e-01 -2.0000000e-03 1.3164209e-02 
1.1957005e-01 0.0000000e+00 -6.7099020e-04 
1.1957005e-01 -2.0000000e-03 -6.7099020e-04 
1.1949487e-01 0.0000000e+00 1.3352294e-02 
1.1949487e-01 -2.0000000e-03 1.3352294e-02 
1.1611861e-01 0.0000000e+00 -7.7459520e-04 
1.1611861e-01 -2.0000000e-03 -7.7459520e-04 
1.1583551e-01 0.0000000e+00 1.3540378e-02 
1.1583551e-01 -2.0000000e-03 1.3540378e-02 
1.1266717e-01 0.0000000e+00 -8.7820020e-04 
1.1266717e-01 -2.0000000e-03 -8.7820020e-04 
1.1217616e-01 0.0000000e+00 1.3728462e-02 
1.1217616e-01 -2.0000000e-03 1.3728462e-02 
1.0921573e-01 0.0000000e+00 -9.8180510e-04 
1.0921573e-01 -2.0000000e-03 -9.8180510e-04 
1.0851680e-01 0.0000000e+00 1.3916547e-02 
1.0851680e-01 -2.0000000e-03 1.3916547e-02 
1.0576429e-01 0.0000000e+00 -1.0854101e-03 
1.0576429e-01 -2.0000000e-03 -1.0854101e-03 
1.0485745e-01 0.0000000e+00 1.4104631e-02 
1.0485745e-01 -2.0000000e-03 1.4104631e-02 
1.0231285e-01 0.0000000e+00 -1.1890151e-03 
1.0231285e-01 -2.0000000e-03 -1.1890151e-03 
1.0119809e-01 0.0000000e+00 1.4292715e-02 
1.0119809e-01 -2.0000000e-03 1.4292715e-02 
9.8861408e-02 0.0000000e+00 -1.2926201e-03 
9.8861408e-02 -2.0000000e-03 -1.2926201e-03 
9.7538735e-02 0.0000000e+00 1.4480800e-02 
9.7538735e-02 -2.0000000e-03 1.4480799e-02 
9.5409968e-02 0.0000000e+00 -1.3962251e-03 
9.5409968e-02 -2.0000000e-03 -1.3962251e-03 
9.3879379e-02 0.0000000e+00 1.4668884e-02 
9.3879379e-02 -2.0000000e-03 1.4668884e-02 
9.1958528e-02 0.0000000e+00 -1.4998301e-03 
9.1958528e-02 -2.0000000e-03 -1.4998301e-03 
9.0220024e-02 0.0000000e+00 1.4856968e-02 
9.0220024e-02 -2.0000000e-03 1.4856968e-02 
8.8507088e-02 0.0000000e+00 -1.6034351e-03 
8.8507088e-02 -2.0000000e-03 -1.6034351e-03 
8.6560668e-02 0.0000000e+00 1.5045053e-02 
8.6560668e-02 -2.0000000e-03 1.5045052e-02 
8.5055648e-02 0.0000000e+00 -1.7070400e-03 
8.5055648e-02 -2.0000000e-03 -1.7070400e-03 
8.2901313e-02 0.0000000e+00 1.5233137e-02 
8.2901313e-02 -2.0000000e-03 1.5233137e-02 
8.1604208e-02 0.0000000e+00 -1.8106450e-03 
8.1604208e-02 -2.0000000e-03 -1.8106450e-03 
7.9241957e-02 0.0000000e+00 1.5421221e-02 
7.9241957e-02 -2.0000000e-03 1.5421221e-02 
7.8152768e-02 0.0000000e+00 -1.9142500e-03 
7.8152768e-02 -2.0000000e-03 -1.9142500e-03 
7.5582602e-02 0.0000000e+00 1.5609306e-02 
7.5582602e-02 -2.0000000e-03 1.5609305e-02 
7.4701328e-02 0.0000000e+00 -2.0178550e-03 
7.4701328e-02 -2.0000000e-03 -2.0178550e-03 
7.1249888e-02 0.0000000e+00 -2.1214600e-03 
7.1249888e-02 -2.0000000e-03 -2.1214600e-03 
7.1923246e-02 0.0000000e+00 1.5797390e-02 
7.1923246e-02 -2.0000000e-03 1.5797390e-02 
6.7798448e-02 0.0000000e+00 -2.2250650e-03 
6.7798448e-02 -2.0000000e-03 -2.2250650e-03 
6.8263891e-02 0.0000000e+00 1.5985474e-02 
6.8263891e-02 -2.0000000e-03 1.5985474e-02 
[...]
POINT_DATA 388
FIELD FieldData 2
DISPLACEMENT 3 388  float
0.0000000e+00 0.0000000e+00 0.0000000e+00 
0.0000000e+00 0.0000000e+00 0.0000000e+00 
0.0000000e+00 0.0000000e+00 0.0000000e+00 
0.0000000e+00 0.0000000e+00 0.0000000e+00 
0.0000000e+00 0.0000000e+00 0.0000000e+00 
0.0000000e+00 0.0000000e+00 0.0000000e+00 
0.0000000e+00 0.0000000e+00 0.0000000e+00 
0.0000000e+00 0.0000000e+00 0.0000000e+00 
0.0000000e+00 0.0000000e+00 0.0000000e+00 
0.0000000e+00 0.0000000e+00 0.0000000e+00 
0.0000000e+00 0.0000000e+00 0.0000000e+00 
0.0000000e+00 0.0000000e+00 0.0000000e+00 
0.0000000e+00 0.0000000e+00 0.0000000e+00 
0.0000000e+00 0.0000000e+00 0.0000000e+00 
0.0000000e+00 0.0000000e+00 0.0000000e+00 
0.0000000e+00 0.0000000e+00 0.0000000e+00 
0.0000000e+00 0.0000000e+00 0.0000000e+00 
0.0000000e+00 0.0000000e+00 0.0000000e+00 
0.0000000e+00 0.0000000e+00 0.0000000e+00 
0.0000000e+00 0.0000000e+00 0.0000000e+00 
0.0000000e+00 0.0000000e+00 0.0000000e+00 
0.0000000e+00 0.0000000e+00 0.0000000e+00 
0.0000000e+00 0.0000000e+00 0.0000000e+00 
0.0000000e+00 0.0000000e+00 0.0000000e+00 
0.0000000e+00 0.0000000e+00 0.0000000e+00 
0.0000000e+00 0.0000000e+00 0.0000000e+00 
0.0000000e+00 0.0000000e+00 0.0000000e+00 
0.0000000e+00 0.0000000e+00 0.0000000e+00 
0.0000000e+00 0.0000000e+00 0.0000000e+00 
0.0000000e+00 0.0000000e+00 0.0000000e+00 
0.0000000e+00 0.0000000e+00 0.0000000e+00 
0.0000000e+00 0.0000000e+00 0.0000000e+00 
0.0000000e+00 0.0000000e+00 0.0000000e+00 
0.0000000e+00 0.0000000e+00 0.0000000e+00 
0.0000000e+00 0.0000000e+00 0.0000000e+00 
0.0000000e+00 0.0000000e+00 0.0000000e+00 
0.0000000e+00 0.0000000e+00 0.0000000e+00 
0.0000000e+00 0.0000000e+00 0.0000000e+00 
0.0000000e+00 0.0000000e+00 0.0000000e+00 
0.0000000e+00 0.0000000e+00 0.0000000e+00 
0.0000000e+00 0.0000000e+00 0.0000000e+00 
0.0000000e+00 0.0000000e+00 0.0000000e+00 
0.0000000e+00 0.0000000e+00 0.0000000e+00 
0.0000000e+00 0.0000000e+00 0.0000000e+00 
0.0000000e+00 0.0000000e+00 0.0000000e+00 
0.0000000e+00 0.0000000e+00 0.0000000e+00 
0.0000000e+00 0.0000000e+00 0.0000000e+00 
0.0000000e+00 0.0000000e+00 0.0000000e+00 
0.0000000e+00 0.0000000e+00 0.0000000e+00 
0.0000000e+00 0.0000000e+00 0.0000000e+00 
0.0000000e+00 0.0000000e+00 0.0000000e+00 
0.0000000e+00 0.0000000e+00 0.0000000e+00 
0.0000000e+00 0.0000000e+00 0.0000000e+00 
0.0000000e+00 0.0000000e+00 0.0000000e+00 
0.0000000e+00 0.0000000e+00 0.0000000e+00 
0.0000000e+00 0.0000000e+00 0.0000000e+00 
0.0000000e+00 0.0000000e+00 0.0000000e+00 
0.0000000e+00 0.0000000e+00 0.0000000e+00 
0.0000000e+00 0.0000000e+00 0.0000000e+00 
0.0000000e+00 0.0000000e+00 0.0000000e+00 
0.0000000e+00 0.0000000e+00 0.0000000e+00 
0.0000000e+00 0.0000000e+00 0.0000000e+00 
0.0000000e+00 0.0000000e+00 0.0000000e+00 
0.0000000e+00 0.0000000e+00 0.0000000e+00 
0.0000000e+00 0.0000000e+00 0.0000000e+00 
0.0000000e+00 0.0000000e+00 0.0000000e+00 
0.0000000e+00 0.0000000e+00 0.0000000e+00 
0.0000000e+00 0.0000000e+00 0.0000000e+00 
0.0000000e+00 0.0000000e+00 0.0000000e+00 
0.0000000e+00 0.0000000e+00 0.0000000e+00 
0.0000000e+00 0.0000000e+00 0.0000000e+00 
0.0000000e+00 0.0000000e+00 0.0000000e+00 
0.0000000e+00 0.0000000e+00 0.0000000e+00 
0.0000000e+00 0.0000000e+00 0.0000000e+00 
0.0000000e+00 0.0000000e+00 0.0000000e+00 
0.0000000e+00 0.0000000e+00 0.0000000e+00 
0.0000000e+00 0.0000000e+00 0.0000000e+00 
0.0000000e+00 0.0000000e+00 0.0000000e+00 
2.1021666e-07 0.0000000e+00 -7.3592150e-06 
2.1021666e-07 0.0000000e+00 -7.3592150e-06 
-7.2367821e-09 0.0000000e+00 -1.4848191e-07 
-7.2242965e-09 0.0000000e+00 -1.4823896e-07 
2.0682707e-07 0.0000000e+00 -7.2405605e-06 
2.0682707e-07 0.0000000e+00 -7.2405605e-06 
-1.5219824e-08 0.0000000e+00 -3.1225129e-07 
-1.5209932e-08 0.0000000e+00 -3.1205884e-07 
2.0310990e-07 0.0000000e+00 -7.1104201e-06 
2.0310990e-07 0.0000000e+00 -7.1104201e-06 
-2.3969618e-08 0.0000000e+00 -4.9178381e-07 
-2.3959303e-08 0.0000000e+00 -4.9158310e-07 
1.9900754e-07 0.0000000e+00 -6.9668163e-06 
1.9900754e-07 0.0000000e+00 -6.9668163e-06 
-3.3622116e-08 0.0000000e+00 -6.8980893e-07 
-3.3611876e-08 0.0000000e+00 -6.8960969e-07 
1.9487756e-07 0.0000000e+00 -6.8222355e-06 
1.9487756e-07 0.0000000e+00 -6.8222355e-06 
-4.4195208e-08 0.0000000e+00 -9.0676776e-07 
-4.4195205e-08 0.0000000e+00 -9.0676771e-07 
1.9074758e-07 0.0000000e+00 -6.6776547e-06 
1.9074758e-07 0.0000000e+00 -6.6776547e-06 
-5.4862660e-08 0.0000000e+00 -1.1255745e-06 
-5.4862661e-08 0.0000000e+00 -1.1255745e-06 
1.8661760e-07 0.0000000e+00 -6.5330738e-06 
1.8661760e-07 0.0000000e+00 -6.5330738e-06 
-6.5452533e-08 0.0000000e+00 -1.3428720e-06 
-6.5452533e-08 0.0000000e+00 -1.3428720e-06 
1.8248762e-07 0.0000000e+00 -6.3884930e-06 
1.8248762e-07 0.0000000e+00 -6.3884930e-06 
-7.6068724e-08 0.0000000e+00 -1.5606814e-06 
-7.6068724e-08 0.0000000e+00 -1.5606814e-06 
1.7835764e-07 0.0000000e+00 -6.2439122e-06 
1.7835764e-07 0.0000000e+00 -6.2439122e-06 
-8.6709859e-08 0.0000000e+00 -1.7789762e-06 
-8.6709859e-08 0.0000000e+00 -1.7789762e-06 
1.7422766e-07 0.0000000e+00 -6.0993314e-06 
1.7423066e-07 0.0000000e+00 -6.0994313e-06 
-9.7326050e-08 0.0000000e+00 -1.9967856e-06 
-9.7326050e-08 0.0000000e+00 -1.9967856e-06 
1.7010068e-07 0.0000000e+00 -5.9548505e-06 
1.7010068e-07 0.0000000e+00 -5.9548505e-06 
-1.0791592e-07 0.0000000e+00 -2.2140830e-06 
-1.0791592e-07 0.0000000e+00 -2.2140830e-06 
1.6597070e-07 0.0000000e+00 -5.8102697e-06 
1.6597070e-07 0.0000000e+00 -5.8102697e-06 
-1.1855706e-07 0.0000000e+00 -2.4323778e-06 
-1.1850579e-07 0.0000000e+00 -2.4313804e-06 
1.6184072e-07 0.0000000e+00 -5.6656889e-06 
1.6184072e-07 0.0000000e+00 -5.6656889e-06 
-1.2917325e-07 0.0000000e+00 -2.6501872e-06 
-1.2917325e-07 0.0000000e+00 -2.6501872e-06 
1.5771074e-07 0.0000000e+00 -5.5211081e-06 
1.5771074e-07 0.0000000e+00 -5.5211081e-06 
-1.3976312e-07 0.0000000e+00 -2.8674847e-06 
-1.3976312e-07 0.0000000e+00 -2.8674847e-06 
1.5358077e-07 0.0000000e+00 -5.3765272e-06 
1.5358077e-07 0.0000000e+00 -5.3765272e-06 
-1.5043057e-07 0.0000000e+00 -3.0862915e-06 
-1.5037931e-07 0.0000000e+00 -3.0852941e-06 
1.4945079e-07 0.0000000e+00 -5.2319464e-06 
1.4945079e-07 0.0000000e+00 -5.2319464e-06 
-1.6102045e-07 0.0000000e+00 -3.3035889e-06 
-1.6102045e-07 0.0000000e+00 -3.3035889e-06 
1.4532081e-07 0.0000000e+00 -5.0873656e-06 
1.4532081e-07 0.0000000e+00 -5.0873656e-06 
-1.7163664e-07 0.0000000e+00 -3.5213983e-06 
-1.7163664e-07 0.0000000e+00 -3.5213983e-06 
1.4119083e-07 0.0000000e+00 -4.9427848e-06 
1.4119083e-07 0.0000000e+00 -4.9427848e-06 
1.3706385e-07 0.0000000e+00 -4.7983039e-06 
1.3706385e-07 0.0000000e+00 -4.7983039e-06 
-1.8227777e-07 0.0000000e+00 -3.7396931e-06 
-1.8222651e-07 0.0000000e+00 -3.7386957e-06 
1.3293387e-07 0.0000000e+00 -4.6537231e-06 
1.3293387e-07 0.0000000e+00 -4.6537231e-06 
-1.9289396e-07 0.0000000e+00 -3.9575025e-06 
-1.9289396e-07 0.0000000e+00 -3.9575025e-06 
1.2880389e-07 0.0000000e+00 -4.5091423e-06 
1.2880389e-07 0.0000000e+00 -4.5091423e-06 
-2.0348384e-07 0.0000000e+00 -4.1747999e-06 
-2.0348384e-07 0.0000000e+00 -4.1747999e-06 
1.2467391e-07 0.0000000e+00 -4.3645615e-06 
1.2467391e-07 0.0000000e+00 -4.3645615e-06 
-2.1407371e-07 0.0000000e+00 -4.3920974e-06 
-2.1407371e-07 0.0000000e+00 -4.3920974e-06 
1.2054393e-07 0.0000000e+00 -4.2199806e-06 
1.2054393e-07 0.0000000e+00 -4.2199806e-06 
-2.2474116e-07 0.0000000e+00 -4.6109042e-06 
-2.2474116e-07 0.0000000e+00 -4.6109042e-06 
1.1641395e-07 0.0000000e+00 -4.0753998e-06 
1.1641395e-07 0.0000000e+00 -4.0753998e-06 
-2.3533103e-07 0.0000000e+00 -4.8282016e-06 
-2.3533103e-07 0.0000000e+00 -4.8282016e-06 
1.1228398e-07 0.0000000e+00 -3.9308190e-06 
1.1228398e-07 0.0000000e+00 -3.9308190e-06 
-2.4594723e-07 0.0000000e+00 -5.0460110e-06 
-2.4594723e-07 0.0000000e+00 -5.0460110e-06 
1.0815700e-07 0.0000000e+00 -3.7863381e-06 
1.0815700e-07 0.0000000e+00 -3.7863381e-06 
-2.5658836e-07 0.0000000e+00 -5.2643058e-06 
-2.5658836e-07 0.0000000e+00 -5.2643058e-06 
1.0402702e-07 0.0000000e+00 -3.6417573e-06 
1.0402702e-07 0.0000000e+00 -3.6417573e-06 
-2.6720455e-07 0.0000000e+00 -5.4821152e-06 
-2.6720455e-07 0.0000000e+00 -5.4821152e-06 
9.9897037e-08 0.0000000e+00 -3.4971765e-06 
9.9897037e-08 0.0000000e+00 -3.4971765e-06 
-2.7779442e-07 0.0000000e+00 -5.6994126e-06 
-2.7779442e-07 0.0000000e+00 -5.6994126e-06 
9.5768857e-08 0.0000000e+00 -3.3526556e-06 
9.5768857e-08 0.0000000e+00 -3.3526556e-06 
-2.8844872e-07 0.0000000e+00 -5.9179634e-06 
-2.8839746e-07 0.0000000e+00 -5.9169661e-06 
9.1638878e-08 0.0000000e+00 -3.2080748e-06 
9.1638878e-08 0.0000000e+00 -3.2080748e-06 
-2.9904912e-07 0.0000000e+00 -6.1354657e-06 
-2.9904912e-07 0.0000000e+00 -6.1354657e-06 
8.7508899e-08 0.0000000e+00 -3.0634939e-06 
8.7508899e-08 0.0000000e+00 -3.0634939e-06 
-3.0965215e-07 0.0000000e+00 -6.3530191e-06 
-3.0965215e-07 0.0000000e+00 -6.3530191e-06 
8.3378920e-08 0.0000000e+00 -2.9189131e-06 
8.3378920e-08 0.0000000e+00 -2.9189131e-06 
-3.2030381e-07 0.0000000e+00 -6.5715187e-06 
-3.2025255e-07 0.0000000e+00 -6.5705213e-06 
7.9251940e-08 0.0000000e+00 -2.7744322e-06 
7.9251940e-08 0.0000000e+00 -2.7744322e-06 
-3.3090684e-07 0.0000000e+00 -6.7890721e-06 
-3.3090684e-07 0.0000000e+00 -6.7890721e-06 
7.5121961e-08 0.0000000e+00 -2.6298514e-06 
7.5121961e-08 0.0000000e+00 -2.6298514e-06 
-3.4150724e-07 0.0000000e+00 -7.0065743e-06 
-3.4150724e-07 0.0000000e+00 -7.0065743e-06 
7.0991982e-08 0.0000000e+00 -2.4852706e-06 
7.0991982e-08 0.0000000e+00 -2.4852706e-06 
-3.5216154e-07 0.0000000e+00 -7.2251251e-06 
-3.5211028e-07 0.0000000e+00 -7.2241278e-06 
6.6862003e-08 0.0000000e+00 -2.3406898e-06 
6.6862003e-08 0.0000000e+00 -2.3406898e-06 
6.2732024e-08 0.0000000e+00 -2.1961090e-06 
6.2732024e-08 0.0000000e+00 -2.1961090e-06 
-3.6276194e-07 0.0000000e+00 -7.4426273e-06 
-3.6276194e-07 0.0000000e+00 -7.4426273e-06 
5.8602045e-08 0.0000000e+00 -2.0515282e-06 
5.8602045e-08 0.0000000e+00 -2.0515282e-06 
-3.7336497e-07 0.0000000e+00 -7.6601808e-06 
-3.7336497e-07 0.0000000e+00 -7.6601808e-06 
5.4472066e-08 0.0000000e+00 -1.9069474e-06 
5.4472066e-08 0.0000000e+00 -1.9069474e-06 
-3.8395441e-07 0.0000000e+00 -7.8774543e-06 
-3.8395441e-07 0.0000000e+00 -7.8774543e-06 
5.0342087e-08 0.0000000e+00 -1.7623665e-06 
5.0345086e-08 0.0000000e+00 -1.7624664e-06 
-3.9359038e-07 0.0000000e+00 -8.0751548e-06 
-3.9359038e-07 0.0000000e+00 -8.0751548e-06 
-4.0238966e-07 0.0000000e+00 -8.2556474e-06 
-4.0238966e-07 0.0000000e+00 -8.2556474e-06 
4.6215107e-08 0.0000000e+00 -1.6178856e-06 
4.6215107e-08 0.0000000e+00 -1.6178856e-06 
-4.1032233e-07 0.0000000e+00 -8.4184342e-06 
-4.1032233e-07 0.0000000e+00 -8.4184342e-06 
4.2085128e-08 0.0000000e+00 -1.4733048e-06 
4.2085128e-08 0.0000000e+00 -1.4733048e-06 
-4.1757376e-07 0.0000000e+00 -8.5671988e-06 
-4.1757376e-07 0.0000000e+00 -8.5671988e-06 
3.7955149e-08 0.0000000e+00 -1.3287240e-06 
3.7955149e-08 0.0000000e+00 -1.3287240e-06 
-4.2419298e-07 0.0000000e+00 -8.7029648e-06 
-4.2414171e-07 0.0000000e+00 -8.7019674e-06 
-4.3017878e-07 0.0000000e+00 -8.8257723e-06 
-4.3012752e-07 0.0000000e+00 -8.8247749e-06 
3.4103173e-08 0.0000000e+00 -1.1938745e-06 
3.4103173e-08 0.0000000e+00 -1.1938745e-06 
-4.3558959e-07 0.0000000e+00 -8.9368156e-06 
-4.3558959e-07 0.0000000e+00 -8.9368156e-06 
3.0599903e-08 0.0000000e+00 -1.0712349e-06 
3.0599903e-08 0.0000000e+00 -1.0712349e-06 
0.0000000e+00 0.0000000e+00 0.0000000e+00 
0.0000000e+00 0.0000000e+00 0.0000000e+00 
0.0000000e+00 0.0000000e+00 0.0000000e+00 
0.0000000e+00 0.0000000e+00 0.0000000e+00 
2.7415194e-08 0.0000000e+00 -9.5974715e-07 
2.7418193e-08 0.0000000e+00 -9.5984706e-07 
0.0000000e+00 0.0000000e+00 0.0000000e+00 
0.0000000e+00 0.0000000e+00 0.0000000e+00 
0.0000000e+00 0.0000000e+00 0.0000000e+00 
0.0000000e+00 0.0000000e+00 0.0000000e+00 
2.4521994e-08 0.0000000e+00 -8.5846091e-07 
2.4521994e-08 0.0000000e+00 -8.5846091e-07 
0.0000000e+00 0.0000000e+00 0.0000000e+00 
0.0000000e+00 0.0000000e+00 0.0000000e+00 
0.0000000e+00 0.0000000e+00 0.0000000e+00 
0.0000000e+00 0.0000000e+00 0.0000000e+00 
2.1892004e-08 0.0000000e+00 -7.6638890e-07 
2.1892004e-08 0.0000000e+00 -7.6638890e-07 
0.0000000e+00 0.0000000e+00 0.0000000e+00 
0.0000000e+00 0.0000000e+00 0.0000000e+00 
1.9498841e-08 0.0000000e+00 -6.8261169e-07 
1.9498841e-08 0.0000000e+00 -6.8261169e-07 
0.0000000e+00 0.0000000e+00 0.0000000e+00 
0.0000000e+00 0.0000000e+00 0.0000000e+00 
1.8000476e-08 0.0000000e+00 -6.3015459e-07 
1.8000476e-08 0.0000000e+00 -6.3015459e-07 
0.0000000e+00 0.0000000e+00 0.0000000e+00 
0.0000000e+00 0.0000000e+00 0.0000000e+00 
1.6499111e-08 0.0000000e+00 -5.7759758e-07 
1.6499111e-08 0.0000000e+00 -5.7759758e-07 
1.5001645e-08 0.0000000e+00 -5.2517043e-07 
1.5001645e-08 0.0000000e+00 -5.2517043e-07 
0.0000000e+00 0.0000000e+00 0.0000000e+00 
0.0000000e+00 0.0000000e+00 0.0000000e+00 
1.3500281e-08 0.0000000e+00 -4.7261343e-07 
1.3500281e-08 0.0000000e+00 -4.7261343e-07 
0.0000000e+00 0.0000000e+00 0.0000000e+00 
0.0000000e+00 0.0000000e+00 0.0000000e+00 
1.1998917e-08 0.0000000e+00 -4.2005642e-07 
1.2001916e-08 0.0000000e+00 -4.2015633e-07 
0.0000000e+00 0.0000000e+00 0.0000000e+00 
0.0000000e+00 0.0000000e+00 0.0000000e+00 
1.0500552e-08 0.0000000e+00 -3.6759932e-07 
1.0500552e-08 0.0000000e+00 -3.6759932e-07 
0.0000000e+00 0.0000000e+00 0.0000000e+00 
0.0000000e+00 0.0000000e+00 0.0000000e+00 
8.9991878e-09 0.0000000e+00 -3.1504231e-07 
8.9991878e-09 0.0000000e+00 -3.1504231e-07 
7.5008227e-09 0.0000000e+00 -2.6258522e-07 
7.5008227e-09 0.0000000e+00 -2.6258522e-07 
0.0000000e+00 0.0000000e+00 0.0000000e+00 
0.0000000e+00 0.0000000e+00 0.0000000e+00 
5.9994585e-09 0.0000000e+00 -2.1002821e-07 
5.9994585e-09 0.0000000e+00 -2.1002821e-07 
0.0000000e+00 0.0000000e+00 0.0000000e+00 
0.0000000e+00 0.0000000e+00 0.0000000e+00 
4.5010934e-09 0.0000000e+00 -1.5757111e-07 
4.5010934e-09 0.0000000e+00 -1.5757111e-07 
0.0000000e+00 0.0000000e+00 0.0000000e+00 
0.0000000e+00 0.0000000e+00 0.0000000e+00 
2.9997293e-09 0.0000000e+00 -1.0501410e-07 
2.9997293e-09 0.0000000e+00 -1.0501410e-07 
0.0000000e+00 0.0000000e+00 0.0000000e+00 
0.0000000e+00 0.0000000e+00 0.0000000e+00 
1.5013642e-09 0.0000000e+00 -5.2557007e-08 
1.5013642e-09 0.0000000e+00 -5.2557007e-08 
0.0000000e+00 0.0000000e+00 0.0000000e+00 
0.0000000e+00 0.0000000e+00 0.0000000e+00 
0.0000000e+00 0.0000000e+00 0.0000000e+00 
0.0000000e+00 0.0000000e+00 0.0000000e+00 
0.0000000e+00 0.0000000e+00 0.0000000e+00 
0.0000000e+00 0.0000000e+00 0.0000000e+00 
0.0000000e+00 0.0000000e+00 0.0000000e+00 
0.0000000e+00 0.0000000e+00 0.0000000e+00 
0.0000000e+00 0.0000000e+00 0.0000000e+00 
0.0000000e+00 0.0000000e+00 0.0000000e+00 
0.0000000e+00 0.0000000e+00 0.0000000e+00 
0.0000000e+00 0.0000000e+00 0.0000000e+00 
0.0000000e+00 0.0000000e+00 0.0000000e+00 
0.0000000e+00 0.0000000e+00 0.0000000e+00 
0.0000000e+00 0.0000000e+00 0.0000000e+00 
0.0000000e+00 0.0000000e+00 0.0000000e+00 
0.0000000e+00 0.0000000e+00 0.0000000e+00 
0.0000000e+00 0.0000000e+00 0.0000000e+00 
0.0000000e+00 0.0000000e+00 0.0000000e+00 
0.0000000e+00 0.0000000e+00 0.0000000e+00 
0.0000000e+00 0.0000000e+00 0.0000000e+00 
0.0000000e+00 0.0000000e+00 0.0000000e+00 
0.0000000e+00 0.0000000e+00 0.0000000e+00 
0.0000000e+00 0.0000000e+00 0.0000000e+00 
0.0000000e+00 0.0000000e+00 0.0000000e+00 
0.0000000e+00 0.0000000e+00 0.0000000e+00 
0.0000000e+00 0.0000000e+00 0.0000000e+00 
0.0000000e+00 0.0000000e+00 0.0000000e+00 
0.0000000e+00 0.0000000e+00 0.0000000e+00 
0.0000000e+00 0.0000000e+00 0.0000000e+00 
0.0000000e+00 0.0000000e+00 0.0000000e+00 
0.0000000e+00 0.0000000e+00 0.0000000e+00 
0.0000000e+00 0.0000000e+00 0.0000000e+00 
0.0000000e+00 0.0000000e+00 0.0000000e+00 
0.0000000e+00 0.0000000e+00 0.0000000e+00 
0.0000000e+00 0.0000000e+00 0.0000000e+00 
0.0000000e+00 0.0000000e+00 0.0000000e+00 
0.0000000e+00 0.0000000e+00 0.0000000e+00 
0.0000000e+00 0.0000000e+00 0.0000000e+00 
0.0000000e+00 0.0000000e+00 0.0000000e+00 
0.0000000e+00 0.0000000e+00 0.0000000e+00 
0.0000000e+00 0.0000000e+00 0.0000000e+00 
0.0000000e+00 0.0000000e+00 0.0000000e+00 
0.0000000e+00 0.0000000e+00 0.0000000e+00 
0.0000000e+00 0.0000000e+00 0.0000000e+00 
0.0000000e+00 0.0000000e+00 0.0000000e+00 
0.0000000e+00 0.0000000e+00 0.0000000e+00 
0.0000000e+00 0.0000000e+00 0.0000000e+00 
0.0000000e+00 0.0000000e+00 0.0000000e+00 
0.0000000e+00 0.0000000e+00 0.0000000e+00 
0.0000000e+00 0.0000000e+00 0.0000000e+00 
0.0000000e+00 0.0000000e+00 0.0000000e+00 
0.0000000e+00 0.0000000e+00 0.0000000e+00 
0.0000000e+00 0.0000000e+00 0.0000000e+00 
0.0000000e+00 0.0000000e+00 0.0000000e+00 
0.0000000e+00 0.0000000e+00 0.0000000e+00 
0.0000000e+00 0.0000000e+00 0.0000000e+00 
0.0000000e+00 0.0000000e+00 0.0000000e+00 
0.0000000e+00 0.0000000e+00 0.0000000e+00 
0.0000000e+00 0.0000000e+00 0.0000000e+00 
0.0000000e+00 0.0000000e+00 0.0000000e+00 
0.0000000e+00 0.0000000e+00 0.0000000e+00 
0.0000000e+00 0.0000000e+00 0.0000000e+00 
0.0000000e+00 0.0000000e+00 0.0000000e+00 
0.0000000e+00 0.0000000e+00 0.0000000e+00 
0.0000000e+00 0.0000000e+00 0.0000000e+00 
REACTION 3 388  float
3.9243135e-02 1.0574557e-02 -7.5852196e-03 
3.4041202e-10 1.0975943e-02 5.7651917e-09 
3.0845977e-08 1.1609516e-02 9.2188761e-08 
-8.0088049e-10 1.2451297e-02 -1.3563605e-08 
-2.0660866e-08 1.3169893e-02 -6.1748885e-08 
1.5358668e-10 1.4089727e-02 2.6011115e-09 
7.3546569e-09 1.4902683e-02 2.1980699e-08 
3.9243135e-02 -1.0574557e-02 -7.5852196e-03 
3.4041202e-10 -1.0975943e-02 5.7651918e-09 
3.0845977e-08 -1.1609516e-02 9.2188761e-08 
-8.0088049e-10 -1.2451297e-02 -1.3563605e-08 
-2.0660866e-08 -1.3169893e-02 -6.1748885e-08 
5.3269626e-10 1.5898906e-02 9.0216753e-09 
1.7106368e-08 1.6816049e-02 5.1125746e-08 
1.5358669e-10 -1.4089727e-02 2.6011115e-09 
7.3546569e-09 -1.4902683e-02 2.1980699e-08 
5.3269627e-10 -1.5898906e-02 9.0216753e-09 
1.7106368e-08 -1.6816049e-02 5.1125746e-08 
-2.5855161e-10 1.7883277e-02 -4.3788054e-09 
-2.2073448e-08 1.8914591e-02 -6.5970756e-08 
-2.5855161e-10 -1.7883277e-02 -4.3788054e-09 
-2.2073448e-08 -1.8914591e-02 -6.5970756e-08 
-4.6901254e-11 2.0043347e-02 -7.9431328e-10 
5.0153283e-09 2.1198938e-02 1.4989210e-08 
-4.6901254e-11 -2.0043347e-02 -7.9431327e-10 
5.0153283e-09 -2.1198938e-02 1.4989210e-08 
4.7284844e-10 2.2374468e-02 8.0081228e-09 
4.4420113e-11 2.3664185e-02 1.3275765e-10 
4.7284843e-10 -2.2374468e-02 8.0081228e-09 
4.4420103e-11 -2.3664185e-02 1.3275763e-10 
-5.0004148e-10 2.4865031e-02 -8.4686606e-09 
-5.0004148e-10 -2.4865031e-02 -8.4686606e-09 
-4.6437258e-09 2.6298125e-02 -1.3878610e-08 
-4.6437258e-09 -2.6298125e-02 -1.3878610e-08 
2.6532523e-11 2.7495747e-02 4.4935126e-10 
2.6532526e-11 -2.7495747e-02 4.4935126e-10 
1.1903293e-08 2.9080440e-02 3.5575201e-08 
1.1903293e-08 -2.9080440e-02 3.5575201e-08 
2.5483883e-10 3.0238344e-02 4.3159230e-09 
2.5483883e-10 -3.0238344e-02 4.3159230e-09 
-9.2247885e-09 3.1980957e-02 -2.7570012e-08 
-9.2247885e-09 -3.1980957e-02 -2.7570012e-08 
-2.2552600e-10 3.3054250e-02 -3.8194851e-09 
-2.2552600e-10 -3.3054250e-02 -3.8194850e-09 
1.5300366e-09 3.4959076e-02 4.5727924e-09 
1.5300366e-09 -3.4959076e-02 4.5727924e-09 
-5.9865599e-11 3.5894794e-02 -1.0138754e-09 
-5.9865595e-11 -3.5894794e-02 -1.0138754e-09 
6.0706637e-09 3.7963542e-02 1.8143317e-08 
6.0706637e-09 -3.7963542e-02 1.8143317e-08 
1.2145376e-10 3.8701511e-02 2.0569251e-09 
1.2145376e-10 -3.8701511e-02 2.0569251e-09 
-1.3502402e-09 4.0932295e-02 -4.0354510e-09 
-1.3502402e-09 -4.0932295e-02 -4.0354510e-09 
-2.9910192e-11 4.1407151e-02 -5.0655548e-10 
-2.9910185e-11 -4.1407151e-02 -5.0655548e-10 
-1.1582794e-08 4.3794138e-02 -3.4617279e-08 
-1.1582794e-08 -4.3794138e-02 -3.4617279e-08 
2.0302144e-10 4.3938204e-02 3.4383510e-09 
2.0302143e-10 -4.3938204e-02 3.4383510e-09 
1.4174036e-08 4.6471650e-02 4.2361703e-08 
1.4174036e-08 -4.6471650e-02 4.2361703e-08 
-1.7143660e-10 4.6218030e-02 -2.9034339e-09 
-1.7143659e-10 -4.6218030e-02 -2.9034338e-09 
-9.1895691e-09 4.8883748e-02 -2.7464747e-08 
-9.1895691e-09 -4.8883748e-02 -2.7464747e-08 