# vtk DataFile Version 4.0
vtk output
ASCII
DATASET UNSTRUCTURED_GRID
POINTS 388 float
2.2500000e-01 0.0000000e+00 0.0000000e+00 
2.2449107e-01 0.0000000e+00 3.0050400e-05 
2.2448862e-01 0.0000000e+00 1.7110700e-04 
2.2391301e-01 0.0000000e+00 6.4182500e-05 
2.2390778e-01 0.0000000e+00 3.6545210e-04 
2.2325797e-01 0.0000000e+00 1.0286040e-04 
2.2324960e-01 0.0000000e+00 5.8567700e-04 
2.2500000e-01 -2.0000000e-03 0.0000000e+00 
2.2449107e-01 -2.0000000e-03 3.0050400e-05 
2.2448862e-01 -2.0000000e-03 1.7110700e-04 
2.2391301e-01 -2.0000000e-03 6.4182500e-05 
2.2390778e-01 -2.0000000e-03 3.6545210e-04 
2.2251765e-01 0.0000000e+00 1.4657370e-04 
2.2250574e-01 0.0000000e+00 8.3456920e-04 
2.2325797e-01 -2.0000000e-03 1.0286040e-04 
2.2324960e-01 -2.0000000e-03 5.8567700e-04 
2.2251765e-01 -2.0000000e-03 1.4657370e-04 
2.2250574e-01 -2.0000000e-03 8.3456920e-04 
2.2168344e-01 0.0000000e+00 1.9583050e-04 
2.2166755e-01 0.0000000e+00 1.1150213e-03 
2.2168344e-01 -2.0000000e-03 1.9583050e-04 
2.2166755e-01 -2.0000000e-03 1.1150213e-03 
2.2074660e-01 0.0000000e+00 2.5114740e-04 
2.2072626e-01 0.0000000e+00 1.4299735e-03 
2.2074660e-01 -2.0000000e-03 2.5114740e-04 
2.2072626e-01 -2.0000000e-03 1.4299735e-03 
2.1969847e-01 0.0000000e+00 3.1303560e-04 
2.1967316e-01 0.0000000e+00 1.7823360e-03 
2.1969847e-01 -2.0000000e-03 3.1303560e-04 
2.1967316e-01 -2.0000000e-03 1.7823360e-03 
2.1853077e-01 0.0000000e+00 3.8198350e-04 
2.1853077e-01 -2.0000000e-03 3.8198350e-04 
2.1849994e-01 0.0000000e+00 2.1748901e-03 
2.1849994e-01 -2.0000000e-03 2.1748901e-03 
2.1723599e-01 0.0000000e+00 4.5843550e-04 
2.1723599e-01 -2.0000000e-03 4.5843550e-04 
2.1719904e-01 0.0000000e+00 2.6101664e-03 
2.1719904e-01 -2.0000000e-03 2.6101664e-03 
2.1580776e-01 0.0000000e+00 5.4276720e-04 
2.1580776e-01 -2.0000000e-03 5.4276720e-04 
2.1576406e-01 0.0000000e+00 3.0903024e-03 
2.1576406e-01 -2.0000000e-03 3.0903024e-03 
2.1424137e-01 0.0000000e+00 6.3525640e-04 
2.1424137e-01 -2.0000000e-03 6.3525640e-04 
2.1419028e-01 0.0000000e+00 3.6168826e-03 
2.1419028e-01 -2.0000000e-03 3.6168826e-03 
2.1253427e-01 0.0000000e+00 7.3605430e-04 
2.1253427e-01 -2.0000000e-03 7.3605430e-04 
2.1247512e-01 0.0000000e+00 4.1907675e-03 
2.1247512e-01 -2.0000000e-03 4.1907675e-03 
2.1068657e-01 0.0000000e+00 8.4515420e-04 
2.1068657e-01 -2.0000000e-03 8.4515420e-04 
2.1061868e-01 0.0000000e+00 4.8119221e-03 
2.1061868e-01 -2.0000000e-03 4.8119221e-03 
2.0870151e-01 0.0000000e+00 9.6236450e-04 
2.0870151e-01 -2.0000000e-03 9.6236450e-04 
2.0862422e-01 0.0000000e+00 5.4792579e-03 
2.0862422e-01 -2.0000000e-03 5.4792579e-03 
2.0658586e-01 0.0000000e+00 1.0872857e-03 
2.0658586e-01 -2.0000000e-03 1.0872857e-03 
2.0649854e-01 0.0000000e+00 6.1905035e-03 
2.0649854e-01 -2.0000000e-03 6.1905035e-03 
2.0435014e-01 0.0000000e+00 1.2192962e-03 
2.0435014e-01 -2.0000000e-03 1.2192962e-03 
2.0425218e-01 0.0000000e+00 6.9421227e-03 
2.0425218e-01 -2.0000000e-03 6.9421227e-03 
2.0200871e-01 0.0000000e+00 1.3575488e-03 
2.0200871e-01 -2.0000000e-03 1.3575488e-03 
2.0189957e-01 0.0000000e+00 7.7292963e-03 
2.0189957e-01 -2.0000000e-03 7.7292963e-03 
1.9957956e-01 0.0000000e+00 1.5009810e-03 
1.9957956e-01 -2.0000000e-03 1.5009810e-03 
1.9945876e-01 0.0000000e+00 8.5459793e-03 
1.9945876e-01 -2.0000000e-03 8.5459793e-03 
1.9708391e-01 0.0000000e+00 1.6483401e-03 
1.9708391e-01 -2.0000000e-03 1.6483401e-03 
1.9694655e-01 0.0000000e+00 9.3714164e-03 
1.9694655e-01 -2.0000000e-03 9.3714161e-03 
1.9451177e-01 0.0000000e+00 1.5786032e-03 
1.9451177e-01 -2.0000000e-03 1.5786032e-03 
1.9444984e-01 0.0000000e+00 9.4997425e-03 
1.9444984e-01 -2.0000000e-03 9.4997423e-03 
1.9168266e-01 0.0000000e+00 1.4936791e-03 
1.9168266e-01 -2.0000000e-03 1.4936791e-03 
1.9170347e-01 0.0000000e+00 9.6409013e-03 
1.9170347e-01 -2.0000000e-03 9.6409011e-03 
1.8857063e-01 0.0000000e+00 1.4002627e-03 
1.8857063e-01 -2.0000000e-03 1.4002627e-03 
1.8868245e-01 0.0000000e+00 9.7961760e-03 
1.8868245e-01 -2.0000000e-03 9.7961758e-03 
1.8514741e-01 0.0000000e+00 1.2975046e-03 
1.8514741e-01 -2.0000000e-03 1.2975046e-03 
1.8535934e-01 0.0000000e+00 9.9669781e-03 
1.8535934e-01 -2.0000000e-03 9.9669779e-03 
1.8169597e-01 0.0000000e+00 1.1938996e-03 
1.8169597e-01 -2.0000000e-03 1.1938996e-03 
1.8170391e-01 0.0000000e+00 1.0154860e-02 
1.8170391e-01 -2.0000000e-03 1.0154860e-02 
1.7824453e-01 0.0000000e+00 1.0902946e-03 
1.7824453e-01 -2.0000000e-03 1.0902946e-03 
1.7804456e-01 0.0000000e+00 1.0342945e-02 
1.7804456e-01 -2.0000000e-03 1.0342945e-02 
1.7479309e-01 0.0000000e+00 9.8668960e-04 
1.7479309e-01 -2.0000000e-03 9.8668960e-04 
1.7438520e-01 0.0000000e+00 1.0531029e-02 
1.7438520e-01 -2.0000000e-03 1.0531029e-02 
1.7134165e-01 0.0000000e+00 8.8308460e-04 
1.7134165e-01 -2.0000000e-03 8.8308460e-04 
1.7072585e-01 0.0000000e+00 1.0719113e-02 
1.7072585e-01 -2.0000000e-03 1.0719113e-02 
1.6789021e-01 0.0000000e+00 7.7947960e-04 
1.6789021e-01 -2.0000000e-03 7.7947960e-04 
1.6706649e-01 0.0000000e+00 1.0907198e-02 
1.6706649e-01 -2.0000000e-03 1.0907198e-02 
1.6443877e-01 0.0000000e+00 6.7587460e-04 
1.6443877e-01 -2.0000000e-03 6.7587470e-04 
1.6340714e-01 0.0000000e+00 1.1095282e-02 
1.6340714e-01 -2.0000000e-03 1.1095282e-02 
1.6098733e-01 0.0000000e+00 5.7226970e-04 
1.6098733e-01 -2.0000000e-03 5.7226970e-04 
1.5974778e-01 0.0000000e+00 1.1283366e-02 
1.5974778e-01 -2.0000000e-03 1.1283366e-02 
1.5753589e-01 0.0000000e+00 4.6866470e-04 
1.5753589e-01 -2.0000000e-03 4.6866470e-04 
1.5608842e-01 0.0000000e+00 1.1471451e-02 
1.5608842e-01 -2.0000000e-03 1.1471450e-02 
1.5408445e-01 0.0000000e+00 3.6505970e-04 
1.5408445e-01 -2.0000000e-03 3.6505970e-04 
1.5242907e-01 0.0000000e+00 1.1659535e-02 
1.5242907e-01 -2.0000000e-03 1.1659535e-02 
1.5063301e-01 0.0000000e+00 2.6145470e-04 
1.5063301e-01 -2.0000000e-03 2.6145470e-04 
1.4876971e-01 0.0000000e+00 1.1847619e-02 
1.4876971e-01 -2.0000000e-03 1.1847619e-02 
1.4718157e-01 0.0000000e+00 1.5784970e-04 
1.4718157e-01 -2.0000000e-03 1.5784970e-04 
1.4511036e-01 0.0000000e+00 1.2035704e-02 
1.4511036e-01 -2.0000000e-03 1.2035703e-02 
1.4373013e-01 0.0000000e+00 5.4244700e-05 
1.4373013e-01 -2.0000000e-03 5.4244700e-05 
1.4145100e-01 0.0000000e+00 1.2223788e-02 
1.4145100e-01 -2.0000000e-03 1.2223788e-02 
1.4027869e-01 0.0000000e+00 -4.9360300e-05 
1.4027869e-01 -2.0000000e-03 -4.9360300e-05 
1.3779165e-01 0.0000000e+00 1.2411872e-02 
1.3779165e-01 -2.0000000e-03 1.2411872e-02 
1.3682725e-01 0.0000000e+00 -1.5296530e-04 
1.3682725e-01 -2.0000000e-03 -1.5296530e-04 
1.3337581e-01 0.0000000e+00 -2.5657020e-04 
1.3337581e-01 -2.0000000e-03 -2.5657020e-04 
1.3413229e-01 0.0000000e+00 1.2599957e-02 
1.3413229e-01 -2.0000000e-03 1.2599956e-02 
1.2992437e-01 0.0000000e+00 -3.6017520e-04 
1.2992437e-01 -2.0000000e-03 -3.6017520e-04 
1.3047294e-01 0.0000000e+00 1.2788041e-02 
1.3047294e-01 -2.0000000e-03 1.2788041e-02 
1.2647293e-01 0.0000000e+00 -4.6378020e-04 
1.2647293e-01 -2.0000000e-03 -4.6378020e-04 
1.2681358e-01 0.0000000e+00 1.2976125e-02 
1.2681358e-01 -2.0000000e-03 1.2976125e-02 
1.2302149e-01 0.0000000e+00 -5.6738520e-04 
1.2302149e-01 -2.0000000e-03 -5.6738520e-04 
1.2315422e-01 0.0000000e+00 1.3164209e-02 
1.2315422e-01 -2.0000000e-03 1.3164209e-02 
1.1957005e-01 0.0000000e+00 -6.7099020e-04 
1.1957005e-01 -2.0000000e-03 -6.7099020e-04 
1.1949487e-01 0.0000000e+00 1.3352294e-02 
1.1949487e-01 -2.0000000e-03 1.3352294e-02 
1.1611861e-01 0.0000000e+00 -7.7459520e-04 
1.1611861e-01 -2.0000000e-03 -7.7459520e-04 
1.1583551e-01 0.0000000e+00 1.3540378e-02 
1.1583551e-01 -2.0000000e-03 1.3540378e-02 
1.1266717e-01 0.0000000e+00 -8.7820020e-04 
1.1266717e-01 -2.0000000e-03 -8.7820020e-04 
1.1217616e-01 0.0000000e+00 1.3728462e-02 
1.1217616e-01 -2.0000000e-03 1.3728462e-02 
1.0921573e-01 0.0000000e+00 -9.8180510e-04 
1.0921573e-01 -2.0000000e-03 -9.8180510e-04 
1.0851680e-01 0.0000000e+00 1.3916547e-02 
1.0851680e-01 -2.0000000e-03 1.3916547e-02 
1.0576429e-01 0.0000000e+00 -1.0854101e-03 
1.0576429e-01 -2.0000000e-03 -1.0854101e-03 
1.0485745e-01 0.0000000e+00 1.4104631e-02 
1.0485745e-01 -2.0000000e-03 1.4104631e-02 
1.0231285e-01 0.0000000e+00 -1.1890151e-03 
1.0231285e-01 -2.0000000e-03 -1.1890151e-03 
1.0119809e-01 0.0000000e+00 1.4292715e-02 
1.0119809e-01 -2.0000000e-03 1.4292715e-02 
9.8861408e-02 0.0000000e+00 -1.2926201e-03 
9.8861408e-02 -2.0000000e-03 -1.2926201e-03 
9.7538735e-02 0.0000000e+00 1.4480800e-02 
9.7538735e-02 -2.0000000e-03 1.4480799e-02 
9.5409968e-02 0.0000000e+00 -1.3962251e-03 
9.5409968e-02 -2.0000000e-03 -1.3962251e-03 
9.3879379e-02 0.0000000e+00 1.4668884e-02 
9.3879379e-02 -2.0000000e-03 1.4668884e-02 
9.1958528e-02 0.0000000e+00 -1.4998301e-03 
9.1958528e-02 -2.0000000e-03 -1.4998301e-03 
9.0220024e-02 0.0000000e+00 1.4856968e-02 
9.0220024e-02 -2.0000000e-03 1.4856968e-02 
8.8507088e-02 0.0000000e+00 -1.6034351e-03 
8.8507088e-02 -2.0000000e-03 -1.6034351e-03 
8.6560668e-02 0.0000000e+00 1.5045053e-02 
8.6560668e-02 -2.0000000e-03 1.5045052e-02 
8.5055648e-02 0.0000000e+00 -1.7070400e-03 
8.5055648e-02 -2.0000000e-03 -1.7070400e-03 
8.2901313e-02 0.0000000e+00 1.5233137e-02 
8.2901313e-02 -2.0000000e-03 1.5233137e-02 
8.1604208e-02 0.0000000e+00 -1.8106450e-03 
8.1604208e-02 -2.0000000e-03 -1.8106450e-03 
7.9241957e-02 0.0000000e+00 1.5421221e-02 
7.9241957e-02 -2.0000000e-03 1.5421221e-02 
7.8152768e-02 0.0000000e+00 -1.9142500e-03 
7.8152768e-02 -2.0000000e-03 -1.9142500e-03 
7.5582602e-02 0.0000000e+00 1.5609306e-02 
7.5582602e-02 -2.0000000e-03 1.5609305e-02 
7.4701328e-02 0.0000000e+00 -2.0178550e-03 
7.4701328e-02 -2.0000000e-03 -2.0178550e-03 
7.1249888e-02 0.0000000e+00 -2.1214600e-03 
7.1249888e-02 -2.0000000e-03 -2.1214600e-03 
7.1923246e-02 0.0000000e+00 1.5797390e-02 
7.1923246e-02 -2.0000000e-03 1.5797390e-02 
6.7798448e-02 0.0000000e+00 -2.2250650e-03 
6.7798448e-02 -2.0000000e-03 -2.2250650e-03 
6.8263891e-02 0.0000000e+00 1.5985474e-02 
6.8263891e-02 -2.0000000e-03 1.5985474e-02 
[...]
POINT_DATA 388
FIELD FieldData 2
DISPLACEMENT 3 388  float
0.0000000e+00 0.0000000e+00 0.0000000e+00 
0.0000000e+00 0.0000000e+00 0.0000000e+00 
0.0000000e+00 0.0000000e+00 0.0000000e+00 
0.0000000e+00 0.0000000e+00 0.0000000e+00 
0.0000000e+00 0.0000000e+00 0.0000000e+00 
0.0000000e+00 0.0000000e+00 0.0000000e+00 
0.0000000e+00 0.0000000e+00 0.0000000e+00 
0.0000000e+00 0.0000000e+00 0.0000000e+00 
0.0000000e+00 0.0000000e+00 0.0000000e+00 
0.0000000e+00 0.0000000e+00 0.0000000e+00 
0.0000000e+00 0.0000000e+00 0.0000000e+00 
0.0000000e+00 0.0000000e+00 0.0000000e+00 
0.0000000e+00 0.0000000e+00 0.0000000e+00 
0.0000000e+00 0.0000000e+00 0.0000000e+00 
0.0000000e+00 0.0000000e+00 0.0000000e+00 
0.0000000e+00 0.0000000e+00 0.0000000e+00 
0.0000000e+00 0.0000000e+00 0.0000000e+00 
0.0000000e+00 0.0000000e+00 0.0000000e+00 
0.0000000e+00 0.0000000e+00 0.0000000e+00 
0.0000000e+00 0.0000000e+00 0.0000000e+00 
0.0000000e+00 0.0000000e+00 0.0000000e+00 
0.0000000e+00 0.0000000e+00 0.0000000e+00 
0.0000000e+00 0.0000000e+00 0.0000000e+00 
0.0000000e+00 0.0000000e+00 0.0000000e+00 
0.0000000e+00 0.0000000e+00 0.0000000e+00 
0.0000000e+00 0.0000000e+00 0.0000000e+00 
0.0000000e+00 0.0000000e+00 0.0000000e+00 
0.0000000e+00 0.0000000e+00 0.0000000e+00 
0.0000000e+00 0.0000000e+00 0.0000000e+00 
0.0000000e+00 0.0000000e+00 0.0000000e+00 
0.0000000e+00 0.0000000e+00 0.0000000e+00 
0.0000000e+00 0.0000000e+00 0.0000000e+00 
0.0000000e+00 0.0000000e+00 0.0000000e+00 
0.0000000e+00 0.0000000e+00 0.0000000e+00 
0.0000000e+00 0.0000000e+00 0.0000000e+00 
0.0000000e+00 0.0000000e+00 0.0000000e+00 
0.0000000e+00 0.0000000e+00 0.0000000e+00 
0.0000000e+00 0.0000000e+00 0.0000000e+00 
0.0000000e+00 0.0000000e+00 0.0000000e+00 
0.0000000e+00 0.0000000e+00 0.0000000e+00 
0.0000000e+00 0.0000000e+00 0.0000000e+00 
0.0000000e+00 0.0000000e+00 0.0000000e+00 
0.0000000e+00 0.0000000e+00 0.0000000e+00 
0.0000000e+00 0.0000000e+00 0.0000000e+00 
0.0000000e+00 0.0000000e+00 0.0000000e+00 
0.0000000e+00 0.0000000e+00 0.0000000e+00 
0.0000000e+00 0.0000000e+00 0.0000000e+00 
0.0000000e+00 0.0000000e+00 0.0000000e+00 
0.0000000e+00 0.0000000e+00 0.0000000e+00 
0.0000000e+00 0.0000000e+00 0.0000000e+00 
0.0000000e+00 0.0000000e+00 0.0000000e+00 
0.0000000e+00 0.0000000e+00 0.0000000e+00 
0.0000000e+00 0.0000000e+00 0.0000000e+00 
0.0000000e+00 0.0000000e+00 0.0000000e+00 
0.0000000e+00 0.0000000e+00 0.0000000e+00 
0.0000000e+00 0.0000000e+00 0.0000000e+00 
0.0000000e+00 0.0000000e+00 0.0000000e+00 
0.0000000e+00 0.0000000e+00 0.0000000e+00 
0.0000000e+00 0.0000000e+00 0.0000000e+00 
0.0000000e+00 0.0000000e+00 0.0000000e+00 
0.0000000e+00 0.0000000e+00 0.0000000e+00 
0.0000000e+00 0.0000000e+00 0.0000000e+00 
0.0000000e+00 0.0000000e+00 0.0000000e+00 
0.0000000e+00 0.0000000e+00 0.0000000e+00 
0.0000000e+00 0.0000000e+00 0.0000000e+00 
0.0000000e+00 0.0000000e+00 0.0000000e+00 
0.0000000e+00 0.0000000e+00 0.0000000e+00 
0.0000000e+00 0.0000000e+00 0.0000000e+00 
0.0000000e+00 0.0000000e+00 0.0000000e+00 
0.0000000e+00 0.0000000e+00 0.0000000e+00 
0.0000000e+00 0.0000000e+00 0.0000000e+00 
0.0000000e+00 0.0000000e+00 0.0000000e+00 
0.0000000e+00 0.0000000e+00 0.0000000e+00 
0.0000000e+00 0.0000000e+00 0.0000000e+00 
0.0000000e+00 0.0000000e+00 0.0000000e+00 
0.0000000e+00 0.0000000e+00 0.0000000e+00 
0.0000000e+00 0.0000000e+00 0.0000000e+00 
0.0000000e+00 0.0000000e+00 0.0000000e+00 
1.3524130e-04 0.0000000e+00 1.1793782e-03 
1.3524130e-04 0.0000000e+00 1.1793782e-03 
3.0764219e-04 0.0000000e+00 1.3840726e-03 
3.0764218e-04 0.0000000e+00 1.3840728e-03 
2.6559336e-04 0.0000000e+00 2.4411207e-03 
2.6559336e-04 0.0000000e+00 2.4411207e-03 
6.1712816e-04 0.0000000e+00 2.8596467e-03 
6.1712817e-04 0.0000000e+00 2.8596469e-03 
3.8888089e-04 0.0000000e+00 3.7784551e-03 
3.8888089e-04 0.0000000e+00 3.7784551e-03 
9.2465099e-04 0.0000000e+00 4.4272893e-03 
9.2465100e-04 0.0000000e+00 4.4272895e-03 
5.0205513e-04 0.0000000e+00 5.1902875e-03 
5.0205513e-04 0.0000000e+00 5.1902875e-03 
1.2236405e-03 0.0000000e+00 6.0824900e-03 
1.2236405e-03 0.0000000e+00 6.0824902e-03 
5.9429771e-04 0.0000000e+00 6.5530210e-03 
5.9429771e-04 0.0000000e+00 6.5530210e-03 
1.5069576e-03 0.0000000e+00 7.8188319e-03 
1.5069576e-03 0.0000000e+00 7.8188319e-03 
6.6666197e-04 0.0000000e+00 7.8575639e-03 
6.6666197e-04 0.0000000e+00 7.8575639e-03 
1.7459518e-03 0.0000000e+00 9.4697623e-03 
1.7459518e-03 0.0000000e+00 9.4697623e-03 
7.2057229e-04 0.0000000e+00 9.1051612e-03 
7.2057229e-04 0.0000000e+00 9.1051612e-03 
1.9429069e-03 0.0000000e+00 1.1033668e-02 
1.9429069e-03 0.0000000e+00 1.1033668e-02 
7.5686115e-04 0.0000000e+00 1.0295334e-02 
7.5686115e-04 0.0000000e+00 1.0295334e-02 
2.0992985e-03 0.0000000e+00 1.2508466e-02 
2.0992985e-03 0.0000000e+00 1.2508466e-02 
7.7635131e-04 0.0000000e+00 1.1427525e-02 
7.7635131e-04 0.0000000e+00 1.1427525e-02 
2.2165666e-03 0.0000000e+00 1.3891737e-02 
2.2165666e-03 0.0000000e+00 1.3891737e-02 
7.7988629e-04 0.0000000e+00 1.2501191e-02 
7.7988629e-04 0.0000000e+00 1.2501191e-02 
2.2963891e-03 0.0000000e+00 1.5181320e-02 
2.2963891e-03 0.0000000e+00 1.5181320e-02 
7.6831815e-04 0.0000000e+00 1.3515756e-02 
7.6831815e-04 0.0000000e+00 1.3515756e-02 
2.3405635e-03 0.0000000e+00 1.6375070e-02 
2.3405635e-03 0.0000000e+00 1.6375070e-02 
7.4249376e-04 0.0000000e+00 1.4470541e-02 
7.4249376e-04 0.0000000e+00 1.4470541e-02 
2.3509773e-03 0.0000000e+00 1.7470757e-02 
2.3509774e-03 0.0000000e+00 1.7470757e-02 
7.0324118e-04 0.0000000e+00 1.5364663e-02 
7.0324118e-04 0.0000000e+00 1.5364663e-02 
2.3295884e-03 0.0000000e+00 1.8465970e-02 
2.3295884e-03 0.0000000e+00 1.8465970e-02 
6.5139780e-04 0.0000000e+00 1.6197103e-02 
6.5139780e-04 0.0000000e+00 1.6197103e-02 
2.2785037e-03 0.0000000e+00 1.9358334e-02 
2.2785037e-03 0.0000000e+00 1.9358334e-02 
5.8786937e-04 0.0000000e+00 1.6966982e-02 
5.8786937e-04 0.0000000e+00 1.6966982e-02 
2.1999736e-03 0.0000000e+00 2.0145462e-02 
2.1999736e-03 0.0000000e+00 2.0145463e-02 
5.1362611e-04 0.0000000e+00 1.7673594e-02 
5.1362611e-04 0.0000000e+00 1.7673594e-02 
2.0963703e-03 0.0000000e+00 2.0824870e-02 
2.0963703e-03 0.0000000e+00 2.0824870e-02 
4.2972007e-04 0.0000000e+00 1.8316603e-02 
4.2972007e-04 0.0000000e+00 1.8316603e-02 
1.9703317e-03 0.0000000e+00 2.1394611e-02 
1.9703317e-03 0.0000000e+00 2.1394611e-02 
3.3724044e-04 0.0000000e+00 1.8895887e-02 
3.3724044e-04 0.0000000e+00 1.8895887e-02 
2.3720187e-04 0.0000000e+00 1.9410641e-02 
2.3720187e-04 0.0000000e+00 1.9410641e-02 
1.8248356e-03 0.0000000e+00 2.1854122e-02 
1.8248357e-03 0.0000000e+00 2.1854123e-02 
1.3064297e-04 0.0000000e+00 1.9859922e-02 
1.3064297e-04 0.0000000e+00 1.9859922e-02 
1.6629344e-03 0.0000000e+00 2.2203317e-02 
1.6629344e-03 0.0000000e+00 2.2203317e-02 
1.8718546e-05 0.0000000e+00 2.0243767e-02 
1.8718546e-05 0.0000000e+00 2.0243767e-02 
1.4875442e-03 0.0000000e+00 2.2441111e-02 
1.4875442e-03 0.0000000e+00 2.2441111e-02 
-9.7420165e-05 0.0000000e+00 2.0562259e-02 
-9.7420165e-05 0.0000000e+00 2.0562259e-02 
1.3016072e-03 0.0000000e+00 2.2565951e-02 
1.3016072e-03 0.0000000e+00 2.2565951e-02 
-2.1664133e-04 0.0000000e+00 2.0815171e-02 
-2.1664133e-04 0.0000000e+00 2.0815171e-02 
1.1081872e-03 0.0000000e+00 2.2576561e-02 
1.1081872e-03 0.0000000e+00 2.2576561e-02 
-3.3780028e-04 0.0000000e+00 2.1002438e-02 
-3.3780028e-04 0.0000000e+00 2.1002438e-02 
9.1046027e-04 0.0000000e+00 2.2472693e-02 
9.1046027e-04 0.0000000e+00 2.2472693e-02 
-4.5975122e-04 0.0000000e+00 2.1123703e-02 
-4.5975122e-04 0.0000000e+00 2.1123703e-02 
7.1161038e-04 0.0000000e+00 2.2255224e-02 
7.1161038e-04 0.0000000e+00 2.2255224e-02 
-5.8132615e-04 0.0000000e+00 2.1178341e-02 
-5.8132615e-04 0.0000000e+00 2.1178341e-02 
5.1474258e-04 0.0000000e+00 2.1925033e-02 
5.1474258e-04 0.0000000e+00 2.1925033e-02 
-7.0133026e-04 0.0000000e+00 2.1165941e-02 
-7.0133026e-04 0.0000000e+00 2.1165941e-02 
3.2289970e-04 0.0000000e+00 2.1482904e-02 
3.2289970e-04 0.0000000e+00 2.1482904e-02 
-8.1856034e-04 0.0000000e+00 2.1086394e-02 
-8.1856034e-04 0.0000000e+00 2.1086394e-02 
1.3903964e-04 0.0000000e+00 2.0929928e-02 
1.3903964e-04 0.0000000e+00 2.0929928e-02 
-9.3182070e-04 0.0000000e+00 2.0939824e-02 
-9.3182070e-04 0.0000000e+00 2.0939824e-02 
-3.3981136e-05 0.0000000e+00 2.0267446e-02 
-3.3981082e-05 0.0000000e+00 2.0267447e-02 
-1.0399332e-03 0.0000000e+00 2.0726525e-02 
-1.0399332e-03 0.0000000e+00 2.0726525e-02 
-1.9343135e-04 0.0000000e+00 1.9497047e-02 
-1.9343135e-04 0.0000000e+00 1.9497047e-02 
-1.1417112e-03 0.0000000e+00 2.0446602e-02 
-1.1417112e-03 0.0000000e+00 2.0446602e-02 
-3.3672144e-04 0.0000000e+00 1.8620546e-02 
-3.3672144e-04 0.0000000e+00 1.8620546e-02 
-1.2359515e-03 0.0000000e+00 2.0100021e-02 
-1.2359515e-03 0.0000000e+00 2.0100021e-02 
-4.6138221e-04 0.0000000e+00 1.7639771e-02 
-4.6138216e-04 0.0000000e+00 1.7639772e-02 
-1.3215395e-03 0.0000000e+00 1.9687445e-02 
-1.3215395e-03 0.0000000e+00 1.9687445e-02 
-5.6505312e-04 0.0000000e+00 1.6556530e-02 
-5.6505312e-04 0.0000000e+00 1.6556530e-02 
-1.3974769e-03 0.0000000e+00 1.9210093e-02 
-1.3974769e-03 0.0000000e+00 1.9210093e-02 
-6.4552931e-04 0.0000000e+00 1.5372823e-02 
-6.4552931e-04 0.0000000e+00 1.5372823e-02 
-1.4627342e-03 0.0000000e+00 1.8668682e-02 
-1.4627342e-03 0.0000000e+00 1.8668682e-02 
-7.0078326e-04 0.0000000e+00 1.4090863e-02 
-7.0078320e-04 0.0000000e+00 1.4090864e-02 
-1.5162246e-03 0.0000000e+00 1.8063482e-02 
-1.5162246e-03 0.0000000e+00 1.8063482e-02 
-1.5568654e-03 0.0000000e+00 1.7394761e-02 
-1.5568654e-03 0.0000000e+00 1.7394761e-02 
-7.2897581e-04 0.0000000e+00 1.2713051e-02 
-7.2897581e-04 0.0000000e+00 1.2713051e-02 
-1.5835826e-03 0.0000000e+00 1.6662811e-02 
-1.5835826e-03 0.0000000e+00 1.6662811e-02 
-7.2847603e-04 0.0000000e+00 1.1241989e-02 
-7.2847603e-04 0.0000000e+00 1.1241989e-02 
-1.5954164e-03 0.0000000e+00 1.5868365e-02 
-1.5954164e-03 0.0000000e+00 1.5868365e-02 
-6.9798041e-04 0.0000000e+00 9.6827901e-03 
-6.9798041e-04 0.0000000e+00 9.6827901e-03 
-1.5915464e-03 0.0000000e+00 1.5012583e-02 
-1.5915464e-03 0.0000000e+00 1.5012583e-02 
-6.4331432e-04 0.0000000e+00 8.1898248e-03 
-6.4331432e-04 0.0000000e+00 8.1898248e-03 
-5.7080617e-04 0.0000000e+00 6.7723691e-03 
-5.7080617e-04 0.0000000e+00 6.7723691e-03 
-1.5712099e-03 0.0000000e+00 1.4096654e-02 
-1.5712099e-03 0.0000000e+00 1.4096654e-02 
-4.8576045e-04 0.0000000e+00 5.4357713e-03 
-4.8576045e-04 0.0000000e+00 5.4357713e-03 
-1.5335444e-03 0.0000000e+00 1.3121266e-02 
-1.5335444e-03 0.0000000e+00 1.3121266e-02 
-3.9264454e-04 0.0000000e+00 4.1826912e-03 
-3.9264454e-04 0.0000000e+00 4.1826912e-03 
-1.4776298e-03 0.0000000e+00 1.2086856e-02 
-1.4776298e-03 0.0000000e+00 1.2086856e-02 
-2.9511193e-04 0.0000000e+00 3.0136572e-03 
-2.9511188e-04 0.0000000e+00 3.0136583e-03 
-1.9591377e-04 0.0000000e+00 1.9272185e-03 
-1.9591372e-04 0.0000000e+00 1.9272195e-03 
-1.4084290e-03 0.0000000e+00 1.1069760e-02 
-1.4084290e-03 0.0000000e+00 1.1069760e-02 
-9.7155401e-05 0.0000000e+00 9.2076100e-04 
-9.7155401e-05 0.0000000e+00 9.2076100e-04 
-1.3308494e-03 0.0000000e+00 1.0102356e-02 
-1.3308494e-03 0.0000000e+00 1.0102356e-02 
0.0000000e+00 0.0000000e+00 0.0000000e+00 
0.0000000e+00 0.0000000e+00 0.0000000e+00 
0.0000000e+00 0.0000000e+00 0.0000000e+00 
0.0000000e+00 0.0000000e+00 0.0000000e+00 
-1.2478714e-03 0.0000000e+00 9.1881059e-03 
-1.2478714e-03 0.0000000e+00 9.1881058e-03 
0.0000000e+00 0.0000000e+00 0.0000000e+00 
0.0000000e+00 0.0000000e+00 0.0000000e+00 
0.0000000e+00 0.0000000e+00 0.0000000e+00 
0.0000000e+00 0.0000000e+00 0.0000000e+00 
-1.1619522e-03 0.0000000e+00 8.3287329e-03 
-1.1619522e-03 0.0000000e+00 8.3287329e-03 
0.0000000e+00 0.0000000e+00 0.0000000e+00 
0.0000000e+00 0.0000000e+00 0.0000000e+00 
0.0000000e+00 0.0000000e+00 0.0000000e+00 
0.0000000e+00 0.0000000e+00 0.0000000e+00 
-1.0750898e-03 0.0000000e+00 7.5246555e-03 
-1.0750898e-03 0.0000000e+00 7.5246555e-03 
0.0000000e+00 0.0000000e+00 0.0000000e+00 
0.0000000e+00 0.0000000e+00 0.0000000e+00 
-9.8879425e-04 0.0000000e+00 6.7750913e-03 
-9.8879425e-04 0.0000000e+00 6.7750913e-03 
0.0000000e+00 0.0000000e+00 0.0000000e+00 
0.0000000e+00 0.0000000e+00 0.0000000e+00 
-9.3107333e-04 0.0000000e+00 6.2961149e-03 
-9.3107333e-04 0.0000000e+00 6.2961149e-03 
0.0000000e+00 0.0000000e+00 0.0000000e+00 
0.0000000e+00 0.0000000e+00 0.0000000e+00 
-8.7056724e-04 0.0000000e+00 5.8103567e-03 
-8.7056724e-04 0.0000000e+00 5.8103567e-03 
-8.0721861e-04 0.0000000e+00 5.3177789e-03 
-8.0721861e-04 0.0000000e+00 5.3177789e-03 
0.0000000e+00 0.0000000e+00 0.0000000e+00 
0.0000000e+00 0.0000000e+00 0.0000000e+00 
-7.4092159e-04 0.0000000e+00 4.8182336e-03 
-7.4092159e-04 0.0000000e+00 4.8182336e-03 
0.0000000e+00 0.0000000e+00 0.0000000e+00 
0.0000000e+00 0.0000000e+00 0.0000000e+00 
-6.7155769e-04 0.0000000e+00 4.3115496e-03 
-6.7155769e-04 0.0000000e+00 4.3115495e-03 
0.0000000e+00 0.0000000e+00 0.0000000e+00 
0.0000000e+00 0.0000000e+00 0.0000000e+00 
-5.9906357e-04 0.0000000e+00 3.7976896e-03 
-5.9906357e-04 0.0000000e+00 3.7976896e-03 
0.0000000e+00 0.0000000e+00 0.0000000e+00 
0.0000000e+00 0.0000000e+00 0.0000000e+00 
-5.2343057e-04 0.0000000e+00 3.2767418e-03 
-5.2343057e-04 0.0000000e+00 3.2767418e-03 
-4.4461172e-04 0.0000000e+00 2.7487060e-03 
-4.4461172e-04 0.0000000e+00 2.7487060e-03 
0.0000000e+00 0.0000000e+00 0.0000000e+00 
0.0000000e+00 0.0000000e+00 0.0000000e+00 
-3.6253154e-04 0.0000000e+00 2.2135210e-03 
-3.6253154e-04 0.0000000e+00 2.2135210e-03 
0.0000000e+00 0.0000000e+00 0.0000000e+00 
0.0000000e+00 0.0000000e+00 0.0000000e+00 
-2.7713693e-04 0.0000000e+00 1.6711767e-03 
-2.7713693e-04 0.0000000e+00 1.6711767e-03 
0.0000000e+00 0.0000000e+00 0.0000000e+00 
0.0000000e+00 0.0000000e+00 0.0000000e+00 
-1.8834133e-04 0.0000000e+00 1.1215937e-03 
-1.8834133e-04 0.0000000e+00 1.1215937e-03 
0.0000000e+00 0.0000000e+00 0.0000000e+00 
0.0000000e+00 0.0000000e+00 0.0000000e+00 
-9.6000433e-05 0.0000000e+00 5.6457626e-04 
-9.6000433e-05 0.0000000e+00 5.6457626e-04 
0.0000000e+00 0.0000000e+00 0.0000000e+00 
0.0000000e+00 0.0000000e+00 0.0000000e+00 
0.0000000e+00 0.0000000e+00 0.0000000e+00 
0.0000000e+00 0.0000000e+00 0.0000000e+00 
0.0000000e+00 0.0000000e+00 0.0000000e+00 
0.0000000e+00 0.0000000e+00 0.0000000e+00 
0.0000000e+00 0.0000000e+00 0.0000000e+00 
0.0000000e+00 0.0000000e+00 0.0000000e+00 
0.0000000e+00 0.0000000e+00 0.0000000e+00 
0.0000000e+00 0.0000000e+00 0.0000000e+00 
0.0000000e+00 0.0000000e+00 0.0000000e+00 
0.0000000e+00 0.0000000e+00 0.0000000e+00 
0.0000000e+00 0.0000000e+00 0.0000000e+00 
0.0000000e+00 0.0000000e+00 0.0000000e+00 
0.0000000e+00 0.0000000e+00 0.0000000e+00 
0.0000000e+00 0.0000000e+00 0.0000000e+00 
0.0000000e+00 0.0000000e+00 0.0000000e+00 
0.0000000e+00 0.0000000e+00 0.0000000e+00 
0.0000000e+00 0.0000000e+00 0.0000000e+00 
0.0000000e+00 0.0000000e+00 0.0000000e+00 
0.0000000e+00 0.0000000e+00 0.0000000e+00 
0.0000000e+00 0.0000000e+00 0.0000000e+00 
0.0000000e+00 0.0000000e+00 0.0000000e+00 
0.0000000e+00 0.0000000e+00 0.0000000e+00 
0.0000000e+00 0.0000000e+00 0.0000000e+00 
0.0000000e+00 0.0000000e+00 0.0000000e+00 
0.0000000e+00 0.0000000e+00 0.0000000e+00 
0.0000000e+00 0.0000000e+00 0.0000000e+00 
0.0000000e+00 0.0000000e+00 0.0000000e+00 
0.0000000e+00 0.0000000e+00 0.0000000e+00 
0.0000000e+00 0.0000000e+00 0.0000000e+00 
0.0000000e+00 0.0000000e+00 0.0000000e+00 
0.0000000e+00 0.0000000e+00 0.0000000e+00 
0.0000000e+00 0.0000000e+00 0.0000000e+00 
0.0000000e+00 0.0000000e+00 0.0000000e+00 
0.0000000e+00 0.0000000e+00 0.0000000e+00 
0.0000000e+00 0.0000000e+00 0.0000000e+00 
0.0000000e+00 0.0000000e+00 0.0000000e+00 
0.0000000e+00 0.0000000e+00 0.0000000e+00 
0.0000000e+00 0.0000000e+00 0.0000000e+00 
0.0000000e+00 0.0000000e+00 0.0000000e+00 
0.0000000e+00 0.0000000e+00 0.0000000e+00 
0.0000000e+00 0.0000000e+00 0.0000000e+00 
0.0000000e+00 0.0000000e+00 0.0000000e+00 
0.0000000e+00 0.0000000e+00 0.0000000e+00 
0.0000000e+00 0.0000000e+00 0.0000000e+00 
0.0000000e+00 0.0000000e+00 0.0000000e+00 
0.0000000e+00 0.0000000e+00 0.0000000e+00 
0.0000000e+00 0.0000000e+00 0.0000000e+00 
0.0000000e+00 0.0000000e+00 0.0000000e+00 
0.0000000e+00 0.0000000e+00 0.0000000e+00 
0.0000000e+00 0.0000000e+00 0.0000000e+00 
0.0000000e+00 0.0000000e+00 0.0000000e+00 
0.0000000e+00 0.0000000e+00 0.0000000e+00 
0.0000000e+00 0.0000000e+00 0.0000000e+00 
0.0000000e+00 0.0000000e+00 0.0000000e+00 
0.0000000e+00 0.0000000e+00 0.0000000e+00 
0.0000000e+00 0.0000000e+00 0.0000000e+00 
0.0000000e+00 0.0000000e+00 0.0000000e+00 
0.0000000e+00 0.0000000e+00 0.0000000e+00 
0.0000000e+00 0.0000000e+00 0.0000000e+00 
0.0000000e+00 0.0000000e+00 0.0000000e+00 
0.0000000e+00 0.0000000e+00 0.0000000e+00 
0.0000000e+00 0.0000000e+00 0.0000000e+00 
0.0000000e+00 0.0000000e+00 0.0000000e+00 
0.0000000e+00 0.0000000e+00 0.0000000e+00 
REACTION 3 388  float
3.9161366e-02 1.0574557e-02 -7.8853569e-03 
-1.2845488e-05 1.0975943e-02 -2.1754965e-04 
-2.1333620e-04 1.1609516e-02 -6.3759471e-04 
-1.3788737e-05 1.2451297e-02 -2.3352442e-04 
-2.7210072e-04 1.3169893e-02 -8.1322338e-04 
-1.1943143e-05 1.4089727e-02 -2.0226765e-04 
-2.8089153e-04 1.4902683e-02 -8.3949630e-04 
3.9161366e-02 -1.0574557e-02 -7.8853569e-03 
-1.2845488e-05 -1.0975943e-02 -2.1754965e-04 
-2.1333620e-04 -1.1609516e-02 -6.3759471e-04 
-1.3788737e-05 -1.2451297e-02 -2.3352442e-04 
-2.7210072e-04 -1.3169893e-02 -8.1322338e-04 
-1.6454339e-05 1.5898906e-02 -2.7866874e-04 
-2.9901961e-04 1.6816049e-02 -8.9367543e-04 
-1.1943143e-05 -1.4089727e-02 -2.0226765e-04 
-2.8089153e-04 -1.4902683e-02 -8.3949630e-04 
-1.6454339e-05 -1.5898906e-02 -2.7866874e-04 
-2.9901961e-04 -1.6816049e-02 -8.9367543e-04 
-2.1561652e-05 1.7883277e-02 -3.6516558e-04 
-3.4272104e-04 1.8914591e-02 -1.0242852e-03 
-2.1561652e-05 -1.7883277e-02 -3.6516558e-04 
-3.4272104e-04 -1.8914591e-02 -1.0242852e-03 
-2.6888329e-05 2.0043347e-02 -4.5537754e-04 
-4.1179506e-04 2.1198938e-02 -1.2307256e-03 
-2.6888329e-05 -2.0043347e-02 -4.5537754e-04 
-4.1179506e-04 -2.1198938e-02 -1.2307256e-03 
-3.3013388e-05 2.2374468e-02 -5.5911083e-04 
-4.9267409e-04 2.3664185e-02 -1.4724476e-03 
-3.3013388e-05 -2.2374468e-02 -5.5911083e-04 
-4.9267409e-04 -2.3664185e-02 -1.4724476e-03 
-4.0662987e-05 2.4865031e-02 -6.8866353e-04 
-4.0662987e-05 -2.4865031e-02 -6.8866353e-04 
-5.8818343e-04 2.6298125e-02 -1.7578950e-03 
-5.8818343e-04 -2.6298125e-02 -1.7578950e-03 
-4.8025366e-05 2.7495747e-02 -8.1335190e-04 
-4.8025366e-05 -2.7495747e-02 -8.1335190e-04 
-6.8226851e-04 2.9080440e-02 -2.0390857e-03 
-6.8226851e-04 -2.9080440e-02 -2.0390857e-03 
-5.4837849e-05 3.0238344e-02 -9.2872730e-04 
-5.4837849e-05 -3.0238344e-02 -9.2872730e-04 
-7.7190879e-04 3.1980957e-02 -2.3069922e-03 
-7.7190879e-04 -3.1980957e-02 -2.3069922e-03 
-6.1618689e-05 3.3054250e-02 -1.0435668e-03 
-6.1618689e-05 -3.3054250e-02 -1.0435668e-03 
-8.5591319e-04 3.4959076e-02 -2.5580549e-03 
-8.5591319e-04 -3.4959076e-02 -2.5580549e-03 
-6.7227533e-05 3.5894794e-02 -1.1385575e-03 
-6.7227533e-05 -3.5894794e-02 -1.1385575e-03 
-9.3224156e-04 3.7963542e-02 -2.7861763e-03 
-9.3224156e-04 -3.7963542e-02 -2.7861763e-03 
-7.1745565e-05 3.8701511e-02 -1.2150744e-03 
-7.1745565e-05 -3.8701511e-02 -1.2150744e-03 
-9.9854738e-04 4.0932295e-02 -2.9843435e-03 
-9.9854738e-04 -4.0932295e-02 -2.9843435e-03 
-7.5778960e-05 4.1407151e-02 -1.2833835e-03 
-7.5778960e-05 -4.1407151e-02 -1.2833835e-03 
-1.0518193e-03 4.3794138e-02 -3.1435565e-03 
-1.0518193e-03 -4.3794138e-02 -3.1435565e-03 
-8.0168667e-05 4.3938204e-02 -1.3577270e-03 
-8.0168667e-05 -4.3938204e-02 -1.3577270e-03 
-1.1007819e-03 4.6471650e-02 -3.2898905e-03 
-1.1007819e-03 -4.6471650e-02 -3.2898905e-03 
-8.4643735e-05 4.6218030e-02 -1.4335163e-03 
-8.4643735e-05 -4.6218030e-02 -1.4335163e-03 
-1.1447617e-03 4.8883748e-02 -3.4213320e-03 
-1.1447617e-03 -4.8883748e-02 -3.4213320e-03 
-8.8551403e-05 4.8171201e-02 -1.4996960e-03 
-8.8551403e-05 -4.8171201e-02 -1.4996960e-03 