# vtk DataFile Version 4.0
vtk output
ASCII
DATASET UNSTRUCTURED_GRID
POINTS 122 float
2.2500000e-01 0.0000000e+00 0.0000000e+00 
2.2500000e-01 -2.0000000e-03 0.0000000e+00 
1.9700000e-01 0.0000000e+00 1.7000000e-03 
1.9700000e-01 -2.0000000e-03 1.7000000e-03 
1.9700000e-01 0.0000000e+00 9.4000000e-03 
1.9700000e-01 -2.0000000e-03 9.4000000e-03 
1.8943000e-01 0.0000000e+00 9.7850000e-03 
1.8809500e-01 0.0000000e+00 1.4300000e-03 
1.8943000e-01 -2.0000000e-03 9.7850000e-03 
1.8809500e-01 -2.0000000e-03 1.4300000e-03 
1.8186000e-01 0.0000000e+00 1.0170000e-02 
1.8186000e-01 -2.0000000e-03 1.0170000e-02 
1.7919000e-01 0.0000000e+00 1.1600000e-03 
1.7919000e-01 -2.0000000e-03 1.1600000e-03 
1.7429000e-01 0.0000000e+00 1.0555000e-02 
1.7429000e-01 -2.0000000e-03 1.0555000e-02 
1.7028500e-01 0.0000000e+00 8.9000000e-04 
1.7028500e-01 -2.0000000e-03 8.9000000e-04 
1.6672000e-01 0.0000000e+00 1.0940000e-02 
1.6672000e-01 -2.0000000e-03 1.0940000e-02 
1.6138000e-01 0.0000000e+00 6.2000000e-04 
1.6138000e-01 -2.0000000e-03 6.2000000e-04 
1.5915000e-01 0.0000000e+00 1.1325000e-02 
1.5915000e-01 -2.0000000e-03 1.1325000e-02 
1.5247500e-01 0.0000000e+00 3.5000000e-04 
1.5247500e-01 -2.0000000e-03 3.5000000e-04 
1.5158000e-01 0.0000000e+00 1.1710000e-02 
1.5158000e-01 -2.0000000e-03 1.1710000e-02 
1.4357000e-01 0.0000000e+00 8.0000000e-05 
1.4357000e-01 -2.0000000e-03 8.0000000e-05 
1.4401000e-01 0.0000000e+00 1.2095000e-02 
1.4401000e-01 -2.0000000e-03 1.2095000e-02 
1.3644000e-01 0.0000000e+00 1.2480000e-02 
1.3644000e-01 -2.0000000e-03 1.2480000e-02 
1.3466500e-01 0.0000000e+00 -1.9000000e-04 
1.3466500e-01 -2.0000000e-03 -1.9000000e-04 
1.2887000e-01 0.0000000e+00 1.2865000e-02 
1.2887000e-01 -2.0000000e-03 1.2865000e-02 
1.2576000e-01 0.0000000e+00 -4.6000000e-04 
1.2576000e-01 -2.0000000e-03 -4.6000000e-04 
1.2130000e-01 0.0000000e+00 1.3250000e-02 
1.2130000e-01 -2.0000000e-03 1.3250000e-02 
1.1685500e-01 0.0000000e+00 -7.3000000e-04 
1.1685500e-01 -2.0000000e-03 -7.3000000e-04 
1.1373000e-01 0.0000000e+00 1.3635000e-02 
1.1373000e-01 -2.0000000e-03 1.3635000e-02 
1.0795000e-01 0.0000000e+00 -1.0000000e-03 
1.0795000e-01 -2.0000000e-03 -1.0000000e-03 
1.0616000e-01 0.0000000e+00 1.4020000e-02 
1.0616000e-01 -2.0000000e-03 1.4020000e-02 
9.9045000e-02 0.0000000e+00 -1.2700000e-03 
9.9045000e-02 -2.0000000e-03 -1.2700000e-03 
9.8590000e-02 0.0000000e+00 1.4405000e-02 
9.8590000e-02 -2.0000000e-03 1.4405000e-02 
9.1020000e-02 0.0000000e+00 1.4790000e-02 
9.1020000e-02 -2.0000000e-03 1.4790000e-02 
9.0140000e-02 0.0000000e+00 -1.5400000e-03 
9.0140000e-02 -2.0000000e-03 -1.5400000e-03 
8.3450000e-02 0.0000000e+00 1.5175000e-02 
8.3450000e-02 -2.0000000e-03 1.5175000e-02 
8.1235000e-02 0.0000000e+00 -1.8100000e-03 
8.1235000e-02 -2.0000000e-03 -1.8100000e-03 
7.5880000e-02 0.0000000e+00 1.5560000e-02 
7.5880000e-02 -2.0000000e-03 1.5560000e-02 
7.2330000e-02 0.0000000e+00 -2.0800000e-03 
7.2330000e-02 -2.0000000e-03 -2.0800000e-03 
6.8310000e-02 0.0000000e+00 1.5945000e-02 
6.8310000e-02 -2.0000000e-03 1.5945000e-02 
6.3425000e-02 0.0000000e+00 -2.3500000e-03 
6.3425000e-02 -2.0000000e-03 -2.3500000e-03 
6.0740000e-02 0.0000000e+00 1.6330000e-02 
6.0740000e-02 -2.0000000e-03 1.6330000e-02 
5.4520000e-02 0.0000000e+00 -2.6200000e-03 
5.4520000e-02 -2.0000000e-03 -2.6200000e-03 
5.3170000e-02 0.0000000e+00 1.6715000e-02 
5.3170000e-02 -2.0000000e-03 1.6715000e-02 
4.5615000e-02 0.0000000e+00 -2.8900000e-03 
4.5615000e-02 -2.0000000e-03 -2.8900000e-03 
4.5600000e-02 0.0000000e+00 1.7100000e-02 
4.5600000e-02 -2.0000000e-03 1.7100000e-02 
3.9437095e-02 0.0000000e+00 1.7147246e-02 
3.9437095e-02 -2.0000000e-03 1.7147246e-02 
3.6710000e-02 0.0000000e+00 -3.1600000e-03 
3.6710000e-02 -2.0000000e-03 -3.1600000e-03 
3.2950487e-02 0.0000000e+00 1.6732573e-02 
3.2950487e-02 -2.0000000e-03 1.6732573e-02 
2.7805000e-02 0.0000000e+00 -3.4300000e-03 
2.7805000e-02 -2.0000000e-03 -3.4300000e-03 
2.6954329e-02 0.0000000e+00 1.5782446e-02 
2.6954329e-02 -2.0000000e-03 1.5782446e-02 
2.1485588e-02 0.0000000e+00 1.4619751e-02 
2.1485588e-02 -2.0000000e-03 1.4619751e-02 
1.8900000e-02 0.0000000e+00 -3.7000000e-03 
1.8900000e-02 -2.0000000e-03 -3.7000000e-03 
1.6577982e-02 0.0000000e+00 1.3218783e-02 
1.6577982e-02 -2.0000000e-03 1.3218783e-02 
1.2261766e-02 0.0000000e+00 -3.6772060e-03 
1.2261766e-02 -2.0000000e-03 -3.6772060e-03 
1.2261766e-02 0.0000000e+00 1.1601316e-02 
1.2261766e-02 -2.0000000e-03 1.1601316e-02 
8.5635530e-03 0.0000000e+00 -3.4292840e-03 
8.5635530e-03 -2.0000000e-03 -3.4292840e-03 
8.5635530e-03 0.0000000e+00 9.8287860e-03 
8.5635530e-03 -2.0000000e-03 9.8287860e-03 
5.5061420e-03 0.0000000e+00 -2.9618110e-03 
5.5061420e-03 -2.0000000e-03 -2.9618110e-03 
5.5061420e-03 0.0000000e+00 7.9610410e-03 
5.5061420e-03 -2.0000000e-03 7.9610410e-03 
3.1083840e-03 0.0000000e+00 -2.3027950e-03 
3.1083840e-03 -2.0000000e-03 -2.3027950e-03 
3.1083840e-03 0.0000000e+00 6.0311380e-03 
3.1083840e-03 -2.0000000e-03 6.0311380e-03 
1.3850620e-03 0.0000000e+00 -1.6710370e-03 
1.3850620e-03 -2.0000000e-03 -1.6710370e-03 
1.3850620e-03 0.0000000e+00 4.3751030e-03 
1.3850620e-03 -2.0000000e-03 4.3751030e-03 
3.4680000e-04 0.0000000e+00 -8.2906700e-04 
3.4680000e-04 -2.0000000e-03 -8.2906700e-04 
3.4680000e-04 0.0000000e+00 2.4029600e-03 
3.4680000e-04 -2.0000000e-03 2.4029600e-03 
0.0000000e+00 0.0000000e+00 1.2000000e-03 
0.0000000e+00 -2.0000000e-03 1.2000000e-03 

CELLS 61 305
4 1 0 4 5
4 1 3 2 0
4 4 6 8 5
4 6 10 11 8
4 10 14 15 11
4 14 18 19 15
4 18 22 23 19
4 22 26 27 23
4 26 30 31 27
4 30 32 33 31
4 32 36 37 33
4 36 40 41 37
4 40 44 45 41
4 44 48 49 45
4 48 52 53 49
4 52 54 55 53
4 54 58 59 55
4 58 62 63 59
4 62 66 67 63
4 66 70 71 67
4 70 74 75 71
4 74 78 79 75
4 9 7 2 3
4 13 12 7 9
4 17 16 12 13
4 21 20 16 17
4 25 24 20 21
4 29 28 24 25
4 35 34 28 29
4 39 38 34 35
4 43 42 38 39
4 47 46 42 43
4 51 50 46 47
4 57 56 50 51
4 61 60 56 57
4 65 64 60 61
4 69 68 64 65
4 73 72 68 69
4 77 76 72 73
4 83 82 76 77
4 87 86 82 83
4 93 92 86 87
4 97 96 92 93
4 101 100 96 97
4 105 104 100 101
4 109 108 104 105
4 113 112 108 109
4 117 116 112 113
4 121 120 116 117
4 119 118 120 121
4 115 114 118 119
4 111 110 114 115
4 107 106 110 111
4 103 102 106 107
4 99 98 102 103
4 95 94 98 99
4 91 90 94 95
4 89 88 90 91
4 85 84 88 89
4 81 80 84 85
4 79 78 80 81

CELL_TYPES 61
9
9
9
9
9
9
9
9
9
9
9
9
9
9
9
9
9
9
9
9
9
9
9
9
9
9
9
9
9
9
9
9
9
9
9
9
9
9
9
9
9
9
9
9
9
9
9
9
9
9
9
9
9
9
9
9
9
9
9
9
9
POINT_DATA 122
FIELD FieldData 2
DISPLACEMENT 3 122  float
0.0000000e+00 0.0000000e+00 0.0000000e+00 
0.0000000e+00 0.0000000e+00 0.0000000e+00 
0.0000000e+00 0.0000000e+00 0.0000000e+00 
0.0000000e+00 0.0000000e+00 0.0000000e+00 
0.0000000e+00 0.0000000e+00 0.0000000e+00 
0.0000000e+00 0.0000000e+00 0.0000000e+00 
1.0507007e-19 0.0000000e+00 5.2467784e-19 
-7.0074792e-20 0.0000000e+00 6.3665395e-19 
1.1063063e-19 0.0000000e+00 4.3290299e-19 
-7.5849701e-20 0.0000000e+00 6.2827398e-19 
1.5486507e-19 0.0000000e+00 1.5954332e-18 
2.2639747e-19 0.0000000e+00 8.5700275e-19 
-2.7454152e-20 0.0000000e+00 3.5316752e-19 
-3.0199241e-20 0.0000000e+00 3.7165077e-19 
1.0848961e-19 0.0000000e+00 -2.7383029e-19 
1.0081293e-19 0.0000000e+00 -1.5198267e-18 
-2.9305816e-20 0.0000000e+00 4.7773626e-19 
-2.2884778e-20 0.0000000e+00 4.6821770e-19 
9.0583513e-20 0.0000000e+00 -1.8399605e-18 
1.0132880e-19 0.0000000e+00 -1.6139415e-18 
-8.4606009e-20 0.0000000e+00 -4.5837352e-19 
-8.1059977e-20 0.0000000e+00 -4.4695620e-19 
9.8360345e-20 0.0000000e+00 -2.2894676e-18 
1.0859864e-19 0.0000000e+00 -2.1741055e-18 
-1.5316501e-19 0.0000000e+00 3.1799629e-19 
-1.6696306e-19 0.0000000e+00 3.2882094e-19 
2.5967916e-19 0.0000000e+00 -3.6704007e-19 
2.9579372e-19 0.0000000e+00 5.5342232e-19 
-1.6567124e-19 0.0000000e+00 4.3345443e-19 
-1.4899402e-19 0.0000000e+00 4.3449848e-19 
3.5434094e-19 0.0000000e+00 1.8581425e-18 
3.0033647e-19 0.0000000e+00 3.5082259e-20 
2.8916868e-19 0.0000000e+00 -1.3922851e-20 
4.0132296e-19 0.0000000e+00 7.9970684e-19 
-1.8786595e-19 0.0000000e+00 8.4672711e-19 
-1.9987603e-19 0.0000000e+00 8.5999728e-19 
2.7129421e-19 0.0000000e+00 -9.8237841e-19 
2.3309557e-19 0.0000000e+00 -7.0438210e-19 
-1.3232810e-19 0.0000000e+00 9.2171221e-19 
-1.2702240e-19 0.0000000e+00 9.1975239e-19 
1.9621100e-19 0.0000000e+00 -5.0799749e-19 
2.3610057e-19 0.0000000e+00 -1.8786770e-18 
-1.8922762e-19 0.0000000e+00 1.1708831e-19 
-1.9071293e-19 0.0000000e+00 1.1244179e-19 
2.4184107e-19 0.0000000e+00 -3.6563575e-19 
2.9066403e-19 0.0000000e+00 -1.3229532e-18 
-2.9372984e-19 0.0000000e+00 7.4168033e-19 
-2.9217660e-19 0.0000000e+00 7.4810560e-19 
3.1172564e-19 0.0000000e+00 2.1776276e-20 
3.2809320e-19 0.0000000e+00 1.5912080e-19 
-3.3011066e-19 0.0000000e+00 1.1401486e-19 
-3.2630494e-19 0.0000000e+00 1.0359755e-19 
3.3448476e-19 0.0000000e+00 -4.3003157e-19 
3.8119995e-19 0.0000000e+00 8.2108379e-19 
4.1176191e-19 0.0000000e+00 2.3268080e-18 
4.0619292e-19 0.0000000e+00 8.6116535e-19 
-3.5379356e-19 0.0000000e+00 2.8501757e-19 
-3.6146944e-19 0.0000000e+00 2.9266793e-19 
4.5253077e-19 0.0000000e+00 2.0427636e-18 
4.2863157e-19 0.0000000e+00 1.6157781e-18 
-2.3150422e-19 0.0000000e+00 2.8936903e-19 
-2.3101570e-19 0.0000000e+00 2.8879135e-19 
4.3274335e-19 0.0000000e+00 1.8937449e-18 
4.1026120e-19 0.0000000e+00 2.0232141e-19 
-1.6552747e-19 0.0000000e+00 2.1361079e-19 
-1.6006339e-19 0.0000000e+00 2.1207077e-19 
3.5280546e-19 0.0000000e+00 -4.4858801e-19 
2.6503462e-19 0.0000000e+00 -2.2542429e-18 
-1.5610111e-19 0.0000000e+00 2.7527029e-19 
-1.6118109e-19 0.0000000e+00 2.7580727e-19 
2.9043849e-19 0.0000000e+00 -7.5250548e-20 
6.5942737e-20 0.0000000e+00 7.4324971e-20 
-1.3084433e-19 0.0000000e+00 4.3689873e-19 
-1.2377952e-19 0.0000000e+00 4.3572629e-19 
-1.0036582e-19 0.0000000e+00 -3.1380555e-18 
-5.7185364e-20 0.0000000e+00 -2.3105053e-18 
-1.5982305e-19 0.0000000e+00 8.2910740e-19 
-1.6645458e-19 0.0000000e+00 8.3441926e-19 
0.0000000e+00 0.0000000e+00 0.0000000e+00 
0.0000000e+00 0.0000000e+00 0.0000000e+00 
0.0000000e+00 0.0000000e+00 0.0000000e+00 
0.0000000e+00 0.0000000e+00 0.0000000e+00 
-1.0954851e-19 0.0000000e+00 2.0805571e-19 
-1.0711406e-19 0.0000000e+00 1.9731372e-19 
0.0000000e+00 0.0000000e+00 0.0000000e+00 
0.0000000e+00 0.0000000e+00 0.0000000e+00 
-1.3343439e-19 0.0000000e+00 2.8217456e-19 
-1.3638386e-19 0.0000000e+00 2.9178862e-19 
0.0000000e+00 0.0000000e+00 0.0000000e+00 
0.0000000e+00 0.0000000e+00 0.0000000e+00 
0.0000000e+00 0.0000000e+00 0.0000000e+00 
0.0000000e+00 0.0000000e+00 0.0000000e+00 
0.0000000e+00 0.0000000e+00 0.0000000e+00 
0.0000000e+00 0.0000000e+00 0.0000000e+00 
0.0000000e+00 0.0000000e+00 0.0000000e+00 
0.0000000e+00 0.0000000e+00 0.0000000e+00 
0.0000000e+00 0.0000000e+00 0.0000000e+00 
0.0000000e+00 0.0000000e+00 0.0000000e+00 
0.0000000e+00 0.0000000e+00 0.0000000e+00 
0.0000000e+00 0.0000000e+00 0.0000000e+00 
0.0000000e+00 0.0000000e+00 0.0000000e+00 
0.0000000e+00 0.0000000e+00 0.0000000e+00 
0.0000000e+00 0.0000000e+00 0.0000000e+00 
0.0000000e+00 0.0000000e+00 0.0000000e+00 
0.0000000e+00 0.0000000e+00 0.0000000e+00 
0.0000000e+00 0.0000000e+00 0.0000000e+00 
0.0000000e+00 0.0000000e+00 0.0000000e+00 
0.0000000e+00 0.0000000e+00 0.0000000e+00 
0.0000000e+00 0.0000000e+00 0.0000000e+00 
0.0000000e+00 0.0000000e+00 0.0000000e+00 
0.0000000e+00 0.0000000e+00 0.0000000e+00 
0.0000000e+00 0.0000000e+00 0.0000000e+00 
0.0000000e+00 0.0000000e+00 0.0000000e+00 
0.0000000e+00 0.0000000e+00 0.0000000e+00 
0.0000000e+00 0.0000000e+00 0.0000000e+00 
0.0000000e+00 0.0000000e+00 0.0000000e+00 
0.0000000e+00 0.0000000e+00 0.0000000e+00 
0.0000000e+00 0.0000000e+00 0.0000000e+00 
0.0000000e+00 0.0000000e+00 0.0000000e+00 
0.0000000e+00 0.0000000e+00 0.0000000e+00 
0.0000000e+00 0.0000000e+00 0.0000000e+00 
0.0000000e+00 0.0000000e+00 0.0000000e+00 
REACTION 3 122  float
3.9234705e-02 5.8047999e-01 -7.6378412e-03 
3.9234705e-02 -5.8047999e-01 -7.6378412e-03 
2.7794519e-05 3.7256337e-01 1.8327216e-03 
2.7794519e-05 -3.7256337e-01 1.8327216e-03 
1.0222173e-03 3.7412449e-01 5.3921040e-03 
1.0222173e-03 -3.7412449e-01 5.3921040e-03 
-3.4694470e-18 1.5280844e-01 1.1058862e-17 
-0.0000000e+00 1.7960730e-01 5.4210109e-19 
-3.4694470e-18 -1.5280844e-01 -1.1926224e-17 
1.0408341e-17 -1.7960730e-01 9.7578196e-19 
-1.4918622e-16 1.5280844e-01 1.7021974e-16 
1.4918622e-16 -1.5280844e-01 -1.6089560e-16 
-3.4694470e-18 1.7960730e-01 1.0842022e-18 
-0.0000000e+00 -1.7960730e-01 2.1684043e-19 
-2.3592239e-16 1.5280844e-01 2.0122792e-16 
2.3939184e-16 -1.5280844e-01 -2.1337099e-16 
-0.0000000e+00 1.7960730e-01 -1.0842022e-18 
-1.0408341e-17 -1.7960730e-01 -8.6736174e-19 
-3.8163916e-17 1.5280844e-01 3.7730236e-17 
3.4694470e-17 -1.5280844e-01 -3.6212353e-17 
3.4694470e-18 1.7960730e-01 -0.0000000e+00 
-0.0000000e+00 -1.7960730e-01 1.0842022e-19 
4.8572257e-17 1.5280844e-01 -2.9923980e-17 
-4.5102810e-17 -1.5280844e-01 2.6671373e-17 
-3.4694470e-18 1.7960730e-01 4.3368087e-19 
1.0408341e-17 -1.7960730e-01 -0.0000000e+00 
-3.8163916e-17 1.5280844e-01 4.4018608e-17 
2.7755576e-17 -1.5280844e-01 -4.1416523e-17 
6.9388939e-18 1.7960730e-01 -8.6736174e-19 
-1.0408341e-17 -1.7960730e-01 9.7578196e-19 
-1.4571677e-16 1.5280844e-01 1.1926224e-16 
1.5612511e-16 -1.5280844e-01 -1.1666015e-16 
6.2450045e-17 1.5280844e-01 -7.3725748e-18 
-6.9388939e-17 -1.5280844e-01 9.9746600e-18 
-0.0000000e+00 1.7960730e-01 -1.9515639e-18 
1.3877788e-17 -1.7960730e-01 2.0599841e-18 
1.6653345e-16 1.5280844e-01 -1.4918622e-16 
-1.7000290e-16 -1.5280844e-01 1.4723466e-16 
-6.9388939e-18 1.7960730e-01 -4.3368087e-19 
-1.0408341e-17 -1.7960730e-01 2.1684043e-19 
-1.2836954e-16 1.5280844e-01 1.3986208e-16 
1.3877788e-16 -1.5280844e-01 -1.4007892e-16 
-0.0000000e+00 1.7960730e-01 -2.1684043e-19 
-0.0000000e+00 -1.7960730e-01 -0.0000000e+00 
-1.9081958e-16 1.5280844e-01 1.9233747e-16 
1.8388069e-16 -1.5280844e-01 -1.9884268e-16 
6.9388939e-18 1.7960730e-01 5.6378513e-18 
-6.9388939e-18 -1.7960730e-01 -6.3967928e-18 
-2.7755576e-17 1.5280844e-01 4.9873300e-17 
3.4694470e-17 -1.5280844e-01 -4.2934406e-17 
1.7347235e-17 1.7960730e-01 1.8214596e-17 
-1.0408341e-17 -1.7960730e-01 -1.6479873e-17 
-2.4286129e-17 1.5280844e-01 4.1199683e-17 
1.3877788e-17 -1.5280844e-01 -3.7730236e-17 
-6.2450045e-17 1.5280844e-01 5.5077470e-17 
6.9388939e-17 -1.5280844e-01 -6.4184769e-17 
6.9388939e-18 1.7960730e-01 3.7947076e-18 
6.9388939e-18 -1.7960730e-01 -4.1199683e-18 
-1.3877788e-17 1.5280844e-01 -1.3010426e-18 
1.3877788e-17 -1.5280844e-01 1.0408341e-17 
-3.4694470e-18 1.7960730e-01 1.0842022e-19 
-3.4694470e-18 -1.7960730e-01 1.0842022e-19 
-1.5612511e-16 1.5280844e-01 1.0516761e-16 
1.5265567e-16 -1.5280844e-01 -1.0191500e-16 
-0.0000000e+00 1.7960730e-01 -1.1926224e-18 
-6.9388939e-18 -1.7960730e-01 -1.5178830e-18 
-2.8449465e-16 1.5280844e-01 1.5655879e-16 
2.9490299e-16 -1.5280844e-01 -1.7694179e-16 
-0.0000000e+00 1.7960730e-01 -2.1684043e-19 
3.4694470e-18 -1.7960730e-01 -1.0842022e-19 
-1.3877788e-16 1.5280844e-01 -4.3151246e-17 
6.9388939e-18 -1.5280844e-01 8.3266727e-17 
-0.0000000e+00 1.7960730e-01 1.9515639e-18 
-6.9388939e-18 -1.7960730e-01 2.2768246e-18 
1.8735014e-16 1.5280844e-01 -1.2967058e-16 
-5.8980598e-17 -1.5280844e-01 8.5435131e-17 
-0.0000000e+00 1.7960730e-01 -4.3368087e-19 
6.9388939e-18 -1.7960730e-01 -7.5894152e-19 
2.5430102e-05 1.3852813e-01 8.6944112e-04 
2.5430102e-05 -1.3852813e-01 8.6944112e-04 
-4.0476049e-05 1.2764239e-01 1.4407000e-03 
-4.0476049e-05 -1.2764239e-01 1.4407000e-03 
-3.4694470e-18 1.7960730e-01 -2.3852448e-18 
-3.4694470e-18 -1.7960730e-01 -2.0599841e-18 
-2.0735472e-04 1.2671384e-01 1.8689540e-03 
-2.0735472e-04 -1.2671384e-01 1.8689540e-03 
6.9388939e-18 1.7960730e-01 3.3610267e-18 
1.0408341e-17 -1.7960730e-01 3.4694470e-18 
-1.9232526e-04 1.1755237e-01 1.0373514e-03 
-1.9232526e-04 -1.1755237e-01 1.0373514e-03 
-3.3367183e-04 1.0780187e-01 1.3415171e-03 
-3.3367183e-04 -1.0780187e-01 1.3415171e-03 
9.1413632e-06 1.5671744e-01 -6.8019522e-04 
9.1413632e-06 -1.5671744e-01 -6.8019522e-04 
-5.0758216e-04 9.7906899e-02 1.5404001e-03 
-5.0758216e-04 -9.7906899e-02 1.5404001e-03 
-4.5029929e-05 1.0427545e-01 -1.2792420e-03 
-4.5029929e-05 -1.0427545e-01 -1.2792420e-03 
-6.9828616e-04 8.7800665e-02 1.6390435e-03 
-6.9828616e-04 -8.7800665e-02 1.6390435e-03 
-1.8644755e-04 6.8538519e-02 -1.6985535e-03 
-1.8644755e-04 -6.8538519e-02 -1.6985535e-03 
-9.7586534e-04 7.7452933e-02 1.7962553e-03 
-9.7586534e-04 -7.7452933e-02 1.7962553e-03 
-4.8926152e-04 5.6242530e-02 -2.2957657e-03 
-4.8926152e-04 -5.6242530e-02 -2.2957657e-03 
-1.4989712e-03 6.7140035e-02 2.1308350e-03 
-1.4989712e-03 -6.7140035e-02 2.1308350e-03 
-5.1094575e-04 4.3567226e-02 -1.5961616e-03 
-5.1094575e-04 -4.3567226e-02 -1.5961616e-03 
-1.1686440e-03 5.5117326e-02 1.3281542e-03 
-1.1686440e-03 -5.5117326e-02 1.3281542e-03 
-3.2698035e-03 3.1976000e-02 -5.7590978e-03 
-3.2698035e-03 -3.1976000e-02 -5.7590978e-03 
-5.1447145e-03 4.6557423e-02 3.8701980e-03 
-5.1447145e-03 -4.6557423e-02 3.8701980e-03 
-1.2261978e-02 3.4224028e-02 -7.1737940e-03 
-1.2261978e-02 -3.4224028e-02 -7.1737940e-03 
-3.8070452e-03 3.5085494e-02 1.5322313e-03 
-3.8070452e-03 -3.5085494e-02 1.5322313e-03 
-8.9808861e-03 3.3369257e-02 5.0074451e-04 
-8.9808861e-03 -3.3369257e-02 5.0074451e-04 
CELL_DATA 61
FIELD FieldData 0
