# vtk DataFile Version 4.0
vtk output
ASCII
DATASET UNSTRUCTURED_GRID
POINTS 122 float
2.2500000e-01 0.0000000e+00 0.0000000e+00 
2.2500000e-01 -2.0000000e-03 0.0000000e+00 
1.9700000e-01 0.0000000e+00 1.7000000e-03 
1.9700000e-01 -2.0000000e-03 1.7000000e-03 
1.9700000e-01 0.0000000e+00 9.4000000e-03 
1.9700000e-01 -2.0000000e-03 9.4000000e-03 
1.8943000e-01 0.0000000e+00 9.7850000e-03 
1.8809500e-01 0.0000000e+00 1.4300000e-03 
1.8943000e-01 -2.0000000e-03 9.7850000e-03 
1.8809500e-01 -2.0000000e-03 1.4300000e-03 
1.8186000e-01 0.0000000e+00 1.0170000e-02 
1.8186000e-01 -2.0000000e-03 1.0170000e-02 
1.7919000e-01 0.0000000e+00 1.1600000e-03 
1.7919000e-01 -2.0000000e-03 1.1600000e-03 
1.7429000e-01 0.0000000e+00 1.0555000e-02 
1.7429000e-01 -2.0000000e-03 1.0555000e-02 
1.7028500e-01 0.0000000e+00 8.9000000e-04 
1.7028500e-01 -2.0000000e-03 8.9000000e-04 
1.6672000e-01 0.0000000e+00 1.0940000e-02 
1.6672000e-01 -2.0000000e-03 1.0940000e-02 
1.6138000e-01 0.0000000e+00 6.2000000e-04 
1.6138000e-01 -2.0000000e-03 6.2000000e-04 
1.5915000e-01 0.0000000e+00 1.1325000e-02 
1.5915000e-01 -2.0000000e-03 1.1325000e-02 
1.5247500e-01 0.0000000e+00 3.5000000e-04 
1.5247500e-01 -2.0000000e-03 3.5000000e-04 
1.5158000e-01 0.0000000e+00 1.1710000e-02 
1.5158000e-01 -2.0000000e-03 1.1710000e-02 
1.4357000e-01 0.0000000e+00 8.0000000e-05 
1.4357000e-01 -2.0000000e-03 8.0000000e-05 
1.4401000e-01 0.0000000e+00 1.2095000e-02 
1.4401000e-01 -2.0000000e-03 1.2095000e-02 
1.3644000e-01 0.0000000e+00 1.2480000e-02 
1.3644000e-01 -2.0000000e-03 1.2480000e-02 
1.3466500e-01 0.0000000e+00 -1.9000000e-04 
1.3466500e-01 -2.0000000e-03 -1.9000000e-04 
1.2887000e-01 0.0000000e+00 1.2865000e-02 
1.2887000e-01 -2.0000000e-03 1.2865000e-02 
1.2576000e-01 0.0000000e+00 -4.6000000e-04 
1.2576000e-01 -2.0000000e-03 -4.6000000e-04 
1.2130000e-01 0.0000000e+00 1.3250000e-02 
1.2130000e-01 -2.0000000e-03 1.3250000e-02 
1.1685500e-01 0.0000000e+00 -7.3000000e-04 
1.1685500e-01 -2.0000000e-03 -7.3000000e-04 
1.1373000e-01 0.0000000e+00 1.3635000e-02 
1.1373000e-01 -2.0000000e-03 1.3635000e-02 
1.0795000e-01 0.0000000e+00 -1.0000000e-03 
1.0795000e-01 -2.0000000e-03 -1.0000000e-03 
1.0616000e-01 0.0000000e+00 1.4020000e-02 
1.0616000e-01 -2.0000000e-03 1.4020000e-02 
9.9045000e-02 0.0000000e+00 -1.2700000e-03 
9.9045000e-02 -2.0000000e-03 -1.2700000e-03 
9.8590000e-02 0.0000000e+00 1.4405000e-02 
9.8590000e-02 -2.0000000e-03 1.4405000e-02 
9.1020000e-02 0.0000000e+00 1.4790000e-02 
9.1020000e-02 -2.0000000e-03 1.4790000e-02 
9.0140000e-02 0.0000000e+00 -1.5400000e-03 
9.0140000e-02 -2.0000000e-03 -1.5400000e-03 
8.3450000e-02 0.0000000e+00 1.5175000e-02 
8.3450000e-02 -2.0000000e-03 1.5175000e-02 
8.1235000e-02 0.0000000e+00 -1.8100000e-03 
8.1235000e-02 -2.0000000e-03 -1.8100000e-03 
7.5880000e-02 0.0000000e+00 1.5560000e-02 
7.5880000e-02 -2.0000000e-03 1.5560000e-02 
7.2330000e-02 0.0000000e+00 -2.0800000e-03 
7.2330000e-02 -2.0000000e-03 -2.0800000e-03 
6.8310000e-02 0.0000000e+00 1.5945000e-02 
6.8310000e-02 -2.0000000e-03 1.5945000e-02 
6.3425000e-02 0.0000000e+00 -2.3500000e-03 
6.3425000e-02 -2.0000000e-03 -2.3500000e-03 
6.0740000e-02 0.0000000e+00 1.6330000e-02 
6.0740000e-02 -2.0000000e-03 1.6330000e-02 
5.4520000e-02 0.0000000e+00 -2.6200000e-03 
5.4520000e-02 -2.0000000e-03 -2.6200000e-03 
5.3170000e-02 0.0000000e+00 1.6715000e-02 
5.3170000e-02 -2.0000000e-03 1.6715000e-02 
4.5615000e-02 0.0000000e+00 -2.8900000e-03 
4.5615000e-02 -2.0000000e-03 -2.8900000e-03 
4.5600000e-02 0.0000000e+00 1.7100000e-02 
4.5600000e-02 -2.0000000e-03 1.7100000e-02 
3.9437095e-02 0.0000000e+00 1.7147246e-02 
3.9437095e-02 -2.0000000e-03 1.7147246e-02 
3.6710000e-02 0.0000000e+00 -3.1600000e-03 
3.6710000e-02 -2.0000000e-03 -3.1600000e-03 
3.2950487e-02 0.0000000e+00 1.6732573e-02 
3.2950487e-02 -2.0000000e-03 1.6732573e-02 
2.7805000e-02 0.0000000e+00 -3.4300000e-03 
2.7805000e-02 -2.0000000e-03 -3.4300000e-03 
2.6954329e-02 0.0000000e+00 1.5782446e-02 
2.6954329e-02 -2.0000000e-03 1.5782446e-02 
2.1485588e-02 0.0000000e+00 1.4619751e-02 
2.1485588e-02 -2.0000000e-03 1.4619751e-02 
1.8900000e-02 0.0000000e+00 -3.7000000e-03 
1.8900000e-02 -2.0000000e-03 -3.7000000e-03 
1.6577982e-02 0.0000000e+00 1.3218783e-02 
1.6577982e-02 -2.0000000e-03 1.3218783e-02 
1.2261766e-02 0.0000000e+00 -3.6772060e-03 
1.2261766e-02 -2.0000000e-03 -3.6772060e-03 
1.2261766e-02 0.0000000e+00 1.1601316e-02 
1.2261766e-02 -2.0000000e-03 1.1601316e-02 
8.5635530e-03 0.0000000e+00 -3.4292840e-03 
8.5635530e-03 -2.0000000e-03 -3.4292840e-03 
8.5635530e-03 0.0000000e+00 9.8287860e-03 
8.5635530e-03 -2.0000000e-03 9.8287860e-03 
5.5061420e-03 0.0000000e+00 -2.9618110e-03 
5.5061420e-03 -2.0000000e-03 -2.9618110e-03 
5.5061420e-03 0.0000000e+00 7.9610410e-03 
5.5061420e-03 -2.0000000e-03 7.9610410e-03 
3.1083840e-03 0.0000000e+00 -2.3027950e-03 
3.1083840e-03 -2.0000000e-03 -2.3027950e-03 
3.1083840e-03 0.0000000e+00 6.0311380e-03 
3.1083840e-03 -2.0000000e-03 6.0311380e-03 
1.3850620e-03 0.0000000e+00 -1.6710370e-03 
1.3850620e-03 -2.0000000e-03 -1.6710370e-03 
1.3850620e-03 0.0000000e+00 4.3751030e-03 
1.3850620e-03 -2.0000000e-03 4.3751030e-03 
3.4680000e-04 0.0000000e+00 -8.2906700e-04 
3.4680000e-04 -2.0000000e-03 -8.2906700e-04 
3.4680000e-04 0.0000000e+00 2.4029600e-03 
3.4680000e-04 -2.0000000e-03 2.4029600e-03 
0.0000000e+00 0.0000000e+00 1.2000000e-03 
0.0000000e+00 -2.0000000e-03 1.2000000e-03 

CELLS 61 305
4 1 0 4 5
4 1 3 2 0
4 4 6 8 5
4 6 10 11 8
4 10 14 15 11
4 14 18 19 15
4 18 22 23 19
4 22 26 27 23
4 26 30 31 27
4 30 32 33 31
4 32 36 37 33
4 36 40 41 37
4 40 44 45 41
4 44 48 49 45
4 48 52 53 49
4 52 54 55 53
4 54 58 59 55
4 58 62 63 59
4 62 66 67 63
4 66 70 71 67
4 70 74 75 71
4 74 78 79 75
4 9 7 2 3
4 13 12 7 9
4 17 16 12 13
4 21 20 16 17
4 25 24 20 21
4 29 28 24 25
4 35 34 28 29
4 39 38 34 35
4 43 42 38 39
4 47 46 42 43
4 51 50 46 47
4 57 56 50 51
4 61 60 56 57
4 65 64 60 61
4 69 68 64 65
4 73 72 68 69
4 77 76 72 73
4 83 82 76 77
4 87 86 82 83
4 93 92 86 87
4 97 96 92 93
4 101 100 96 97
4 105 104 100 101
4 109 108 104 105
4 113 112 108 109
4 117 116 112 113
4 121 120 116 117
4 119 118 120 121
4 115 114 118 119
4 111 110 114 115
4 107 106 110 111
4 103 102 106 107
4 99 98 102 103
4 95 94 98 99
4 91 90 94 95
4 89 88 90 91
4 85 84 88 89
4 81 80 84 85
4 79 78 80 81

CELL_TYPES 61
9
9
9
9
9
9
9
9
9
9
9
9
9
9
9
9
9
9
9
9
9
9
9
9
9
9
9
9
9
9
9
9
9
9
9
9
9
9
9
9
9
9
9
9
9
9
9
9
9
9
9
9
9
9
9
9
9
9
9
9
9
POINT_DATA 122
FIELD FieldData 2
DISPLACEMENT 3 122  float
0.0000000e+00 0.0000000e+00 0.0000000e+00 
0.0000000e+00 0.0000000e+00 0.0000000e+00 
0.0000000e+00 0.0000000e+00 0.0000000e+00 
0.0000000e+00 0.0000000e+00 0.0000000e+00 
0.0000000e+00 0.0000000e+00 0.0000000e+00 
0.0000000e+00 0.0000000e+00 0.0000000e+00 
4.0320285e-05 -2.5516913e-05 -1.7692078e-03 
1.1554526e-04 -2.5563407e-05 2.2834202e-03 
4.0320285e-05 2.5516913e-05 -1.7692078e-03 
1.1554526e-04 2.5563407e-05 2.2834202e-03 
4.8990218e-05 -1.8830217e-05 -3.3536297e-03 
4.8990218e-05 1.8830217e-05 -3.3536297e-03 
1.8009865e-04 -1.8806034e-05 4.3296766e-03 
1.8009865e-04 1.8806034e-05 4.3296766e-03 
3.0559690e-05 -2.0560946e-05 -4.7525672e-03 
3.0559690e-05 2.0560946e-05 -4.7525672e-03 
2.0007973e-04 -2.0570425e-05 6.1375522e-03 
2.0007973e-04 2.0570425e-05 6.1375522e-03 
-1.0421232e-05 -2.0111524e-05 -5.9654079e-03 
-1.0421232e-05 2.0111524e-05 -5.9654079e-03 
1.8191845e-04 -2.0108229e-05 7.7059474e-03 
1.8191845e-04 2.0108229e-05 7.7059474e-03 
-6.9388978e-05 -2.0228129e-05 -6.9916577e-03 
-6.9388978e-05 2.0228129e-05 -6.9916577e-03 
1.3207018e-04 -2.0229202e-05 9.0339304e-03 
1.3207018e-04 2.0229202e-05 9.0339304e-03 
-1.4176974e-04 -2.0197868e-05 -7.8309319e-03 
-1.4176974e-04 2.0197868e-05 -7.8309319e-03 
5.7011454e-05 -2.0197532e-05 1.0120737e-02 
5.7011454e-05 2.0197532e-05 1.0120737e-02 
-2.2298168e-04 -2.0205721e-05 -8.4829580e-03 
-2.2298168e-04 2.0205721e-05 -8.4829580e-03 
-3.0843766e-04 -2.0203681e-05 -8.9475760e-03 
-3.0843766e-04 2.0203681e-05 -8.9475760e-03 
-3.6763331e-05 -2.0205823e-05 1.0965775e-02 
-3.6763331e-05 2.0205823e-05 1.0965775e-02 
-3.9354804e-04 -2.0204219e-05 -9.2247382e-03 
-3.9354804e-04 2.0204219e-05 -9.2247382e-03 
-1.4274619e-04 -2.0203651e-05 1.1568628e-02 
-1.4274619e-04 2.0203651e-05 1.1568628e-02 
-4.7372341e-04 -2.0204046e-05 -9.3145096e-03 
-4.7372341e-04 2.0204046e-05 -9.3145096e-03 
-2.5442041e-04 -2.0204229e-05 1.1929057e-02 
-2.5442041e-04 2.0204229e-05 1.1929057e-02 
-5.4437734e-04 -2.0204219e-05 -9.2170672e-03 
-5.4437734e-04 2.0204219e-05 -9.2170672e-03 
-3.6526550e-04 -2.0204041e-05 1.2046997e-02 
-3.6526550e-04 2.0204041e-05 1.2046997e-02 
-6.0092909e-04 -2.0203681e-05 -8.9327002e-03 
-6.0092909e-04 2.0203681e-05 -8.9327002e-03 
-4.6876166e-04 -2.0204229e-05 1.1922559e-02 
-4.6876166e-04 2.0204229e-05 1.1922559e-02 
-6.3880637e-04 -2.0205721e-05 -8.4618097e-03 
-6.3880637e-04 2.0205721e-05 -8.4618097e-03 
-6.5344803e-04 -2.0197868e-05 -7.8049086e-03 
-6.5344803e-04 2.0197868e-05 -7.8049086e-03 
-5.5839437e-04 -2.0203651e-05 1.1556026e-02 
-5.5839437e-04 2.0203651e-05 1.1556026e-02 
-6.4030687e-04 -2.0228129e-05 -6.9626216e-03 
-6.4030687e-04 2.0228129e-05 -6.9626216e-03 
-6.2765904e-04 -2.0205823e-05 1.0947859e-02 
-6.2765904e-04 2.0205823e-05 1.0947859e-02 
-5.9485230e-04 -2.0111524e-05 -5.9356846e-03 
-5.9485230e-04 2.0111524e-05 -5.9356846e-03 
-6.7006543e-04 -2.0197532e-05 1.0098692e-02 
-6.7006543e-04 2.0197532e-05 1.0098692e-02 
-5.1257315e-04 -2.0560946e-05 -4.7249442e-03 
-5.1257315e-04 2.0560946e-05 -4.7249442e-03 
-6.7914278e-04 -2.0229202e-05 9.0093344e-03 
-6.7914278e-04 2.0229202e-05 9.0093344e-03 
-3.8897954e-04 -1.8830217e-05 -3.3313552e-03 
-3.8897954e-04 1.8830217e-05 -3.3313552e-03 
-6.4844443e-04 -2.0108229e-05 7.6807707e-03 
-6.4844443e-04 2.0108229e-05 7.6807707e-03 
-2.1960701e-04 -2.5516913e-05 -1.7559883e-03 
-2.1960701e-04 2.5516913e-05 -1.7559883e-03 
-5.7155207e-04 -2.0570425e-05 6.1141563e-03 
-5.7155207e-04 2.0570425e-05 6.1141563e-03 
0.0000000e+00 0.0000000e+00 0.0000000e+00 
0.0000000e+00 0.0000000e+00 0.0000000e+00 
0.0000000e+00 0.0000000e+00 0.0000000e+00 
0.0000000e+00 0.0000000e+00 0.0000000e+00 
-4.4207866e-04 -1.8806034e-05 4.3108121e-03 
-4.4207866e-04 1.8806034e-05 4.3108121e-03 
0.0000000e+00 0.0000000e+00 0.0000000e+00 
0.0000000e+00 0.0000000e+00 0.0000000e+00 
-2.5367264e-04 -2.5563407e-05 2.2722255e-03 
-2.5367264e-04 2.5563407e-05 2.2722255e-03 
0.0000000e+00 0.0000000e+00 0.0000000e+00 
0.0000000e+00 0.0000000e+00 0.0000000e+00 
0.0000000e+00 0.0000000e+00 0.0000000e+00 
0.0000000e+00 0.0000000e+00 0.0000000e+00 
0.0000000e+00 0.0000000e+00 0.0000000e+00 
0.0000000e+00 0.0000000e+00 0.0000000e+00 
0.0000000e+00 0.0000000e+00 0.0000000e+00 
0.0000000e+00 0.0000000e+00 0.0000000e+00 
0.0000000e+00 0.0000000e+00 0.0000000e+00 
0.0000000e+00 0.0000000e+00 0.0000000e+00 
0.0000000e+00 0.0000000e+00 0.0000000e+00 
0.0000000e+00 0.0000000e+00 0.0000000e+00 
0.0000000e+00 0.0000000e+00 0.0000000e+00 
0.0000000e+00 0.0000000e+00 0.0000000e+00 
0.0000000e+00 0.0000000e+00 0.0000000e+00 
0.0000000e+00 0.0000000e+00 0.0000000e+00 
0.0000000e+00 0.0000000e+00 0.0000000e+00 
0.0000000e+00 0.0000000e+00 0.0000000e+00 
0.0000000e+00 0.0000000e+00 0.0000000e+00 
0.0000000e+00 0.0000000e+00 0.0000000e+00 
0.0000000e+00 0.0000000e+00 0.0000000e+00 
0.0000000e+00 0.0000000e+00 0.0000000e+00 
0.0000000e+00 0.0000000e+00 0.0000000e+00 
0.0000000e+00 0.0000000e+00 0.0000000e+00 
0.0000000e+00 0.0000000e+00 0.0000000e+00 
0.0000000e+00 0.0000000e+00 0.0000000e+00 
0.0000000e+00 0.0000000e+00 0.0000000e+00 
0.0000000e+00 0.0000000e+00 0.0000000e+00 
0.0000000e+00 0.0000000e+00 0.0000000e+00 
0.0000000e+00 0.0000000e+00 0.0000000e+00 
0.0000000e+00 0.0000000e+00 0.0000000e+00 
0.0000000e+00 0.0000000e+00 0.0000000e+00 
0.0000000e+00 0.0000000e+00 0.0000000e+00 
0.0000000e+00 0.0000000e+00 0.0000000e+00 
REACTION 3 122  float
3.9234705e-02 5.8047999e-01 -7.6378412e-03 
3.9234705e-02 -5.8047999e-01 -7.6378412e-03 
1.1798936e-02 3.3477308e-01 -6.5492593e-03 
1.1798936e-02 -3.3477308e-01 -6.5492593e-03 
1.0948066e-02 3.4219206e-01 1.2327992e-02 
1.0948066e-02 -3.4219206e-01 1.2327992e-02 
1.6810667e-07 -1.5823210e-10 -1.9674745e-08 
1.0681579e-07 -1.2171216e-09 3.2613184e-07 
1.6810670e-07 1.5823144e-10 -1.9674740e-08 
1.0681580e-07 1.2171290e-09 3.2613184e-07 
8.6212369e-08 7.6010140e-12 -8.3337404e-09 
8.6212428e-08 -7.6100610e-12 -8.3337319e-09 
2.0279006e-07 7.1693638e-11 9.1225969e-08 
2.0279002e-07 -7.1694426e-11 9.1225976e-08 
2.4364856e-08 -1.7821421e-13 -9.3419960e-09 
2.4364935e-08 1.9272550e-13 -9.3419859e-09 
9.5576755e-08 -2.2893461e-12 4.3449996e-08 
9.5576754e-08 2.2830853e-12 4.3449996e-08 
-4.7271271e-09 7.3669369e-15 -1.0099499e-08 
-4.7271870e-09 1.3155980e-15 -1.0099505e-08 
-6.5144810e-09 2.0308028e-14 3.8444440e-08 
-6.5143064e-09 -3.4076068e-14 3.8444418e-08 
-1.2724872e-08 -6.9389888e-15 -9.9231903e-09 
-1.2724912e-08 -5.3808818e-15 -9.9231938e-09 
-5.0445358e-08 -7.0846784e-15 3.7787273e-08 
-5.0445247e-08 1.9382187e-14 3.7787262e-08 
-1.4683127e-08 4.3888047e-15 -9.7604250e-09 
-1.4683123e-08 3.2547969e-15 -9.7604247e-09 
-6.8377337e-08 4.6880970e-15 3.9241561e-08 
-6.8377313e-08 -4.0189952e-15 3.9241559e-08 
-1.5985920e-08 3.4442295e-15 -9.1851207e-09 
-1.5986032e-08 5.0601867e-15 -9.1851229e-09 
-1.3374138e-08 -5.2262303e-15 -7.8052907e-09 
-1.3374185e-08 -5.2345079e-15 -7.8052911e-09 
-8.4774762e-08 -5.4547202e-15 3.9032567e-08 
-8.4774645e-08 -1.3004387e-15 3.9032561e-08 
-6.7222806e-09 -1.4419070e-15 -6.5779212e-09 
-6.7223231e-09 -1.7708280e-15 -6.5779201e-09 
-8.0866046e-08 7.2163067e-15 3.1508394e-08 
-8.0865983e-08 5.4671288e-15 3.1508392e-08 
-3.2111225e-10 -6.4475824e-15 -6.3132542e-09 
-3.2105548e-10 -6.6797111e-15 -6.3132575e-09 
-4.1692710e-08 2.9273671e-15 2.4037742e-08 
-4.1692752e-08 3.5634845e-15 2.4037742e-08 
6.0202125e-09 5.4155792e-15 -7.2259869e-09 
6.0202930e-09 2.5846502e-15 -7.2259927e-09 
-6.7587112e-10 -2.4885186e-15 2.2292195e-08 
-6.7592994e-10 -1.6206893e-15 2.2292193e-08 
1.2513282e-08 5.1638538e-15 -9.1218923e-09 
1.2513259e-08 4.8127373e-15 -9.1218896e-09 
4.0159814e-08 -4.7366080e-15 2.6519514e-08 
4.0159855e-08 -2.9927633e-15 2.6519517e-08 
1.4971620e-08 -5.2002080e-15 -1.0759584e-08 
1.4971605e-08 -3.5651244e-15 -1.0759582e-08 
1.3617101e-08 6.2664514e-16 -1.1199734e-08 
1.3617138e-08 -2.0366230e-16 -1.1199740e-08 
7.8808548e-08 6.4273192e-15 3.6349733e-08 
7.8808554e-08 3.1429181e-15 3.6349733e-08 
1.1652468e-08 -2.8270233e-15 -1.1162991e-08 
1.1652481e-08 1.5678444e-15 -1.1162993e-08 
8.2254239e-08 -3.0547633e-15 4.4096891e-08 
8.2254192e-08 2.5734191e-15 4.4096886e-08 
3.6780960e-09 -7.0771297e-17 -1.0526978e-08 
3.6781547e-09 -3.2811210e-15 -1.0526990e-08 
6.5874291e-08 2.5603739e-15 4.3312075e-08 
6.5874292e-08 -7.5458269e-15 4.3312075e-08 
-2.5186988e-08 -1.8367491e-13 -6.8218452e-09 
-2.5186942e-08 1.8727316e-13 -6.8218556e-09 
4.8063321e-08 -1.0718518e-14 4.0774053e-08 
4.8063333e-08 1.2415389e-14 4.0774055e-08 
-8.6613070e-08 7.6080613e-12 4.5593779e-10 
-8.6613044e-08 -7.6055225e-12 4.5593129e-10 
4.1732963e-09 2.8509232e-14 3.8768481e-08 
4.1732753e-09 -2.6296023e-14 3.8768477e-08 
-1.6923538e-07 -1.5823193e-10 -2.5179782e-09 
-1.6923537e-07 1.5823262e-10 -2.5179822e-09 
-9.8033565e-08 -2.2872264e-12 3.7579725e-08 
-9.8033577e-08 2.2855397e-12 3.7579722e-08 
-9.1455226e-03 1.0659569e-01 8.7765672e-03 
-9.1455226e-03 -1.0659569e-01 8.7765672e-03 
-4.0476049e-05 1.2764239e-01 1.4407000e-03 
-4.0476049e-05 -1.2764239e-01 1.4407000e-03 
-2.0794440e-07 7.1691858e-11 7.8772486e-08 
-2.0794441e-07 -7.1693082e-11 7.8772484e-08 
-2.0735472e-04 1.2671384e-01 1.8689540e-03 
-2.0735472e-04 -1.2671384e-01 1.8689540e-03 
-1.2637808e-07 -1.2171261e-09 3.1906139e-07 
-1.2637808e-07 1.2171260e-09 3.1906139e-07 
-1.9232526e-04 1.1755237e-01 1.0373514e-03 
-1.9232526e-04 -1.1755237e-01 1.0373514e-03 
-3.3367183e-04 1.0780187e-01 1.3415171e-03 
-3.3367183e-04 -1.0780187e-01 1.3415171e-03 
-1.1232560e-02 1.1892715e-01 -9.7599265e-03 
-1.1232560e-02 -1.1892715e-01 -9.7599265e-03 
-5.0758216e-04 9.7906899e-02 1.5404001e-03 
-5.0758216e-04 -9.7906899e-02 1.5404001e-03 
-4.5029929e-05 1.0427545e-01 -1.2792420e-03 
-4.5029929e-05 -1.0427545e-01 -1.2792420e-03 
-6.9828616e-04 8.7800665e-02 1.6390435e-03 
-6.9828616e-04 -8.7800665e-02 1.6390435e-03 
-1.8644755e-04 6.8538519e-02 -1.6985535e-03 
-1.8644755e-04 -6.8538519e-02 -1.6985535e-03 
-9.7586534e-04 7.7452933e-02 1.7962553e-03 
-9.7586534e-04 -7.7452933e-02 1.7962553e-03 
-4.8926152e-04 5.6242530e-02 -2.2957657e-03 
-4.8926152e-04 -5.6242530e-02 -2.2957657e-03 
-1.4989712e-03 6.7140035e-02 2.1308350e-03 
-1.4989712e-03 -6.7140035e-02 2.1308350e-03 
-5.1094575e-04 4.3567226e-02 -1.5961616e-03 
-5.1094575e-04 -4.3567226e-02 -1.5961616e-03 
-1.1686440e-03 5.5117326e-02 1.3281542e-03 
-1.1686440e-03 -5.5117326e-02 1.3281542e-03 
-3.2698035e-03 3.1976000e-02 -5.7590978e-03 
-3.2698035e-03 -3.1976000e-02 -5.7590978e-03 
-5.1447145e-03 4.6557423e-02 3.8701980e-03 
-5.1447145e-03 -4.6557423e-02 3.8701980e-03 
-1.2261978e-02 3.4224028e-02 -7.1737940e-03 
-1.2261978e-02 -3.4224028e-02 -7.1737940e-03 
-3.8070452e-03 3.5085494e-02 1.5322313e-03 
-3.8070452e-03 -3.5085494e-02 1.5322313e-03 
-8.9808861e-03 3.3369257e-02 5.0074451e-04 
-8.9808861e-03 -3.3369257e-02 5.0074451e-04 
CELL_DATA 61
FIELD FieldData 0
