# vtk DataFile Version 4.0
vtk output
ASCII
DATASET UNSTRUCTURED_GRID
POINTS 122 float
2.2500000e-01 0.0000000e+00 0.0000000e+00 
2.2500000e-01 -2.0000000e-03 0.0000000e+00 
1.9700000e-01 0.0000000e+00 1.7000000e-03 
1.9700000e-01 -2.0000000e-03 1.7000000e-03 
1.9700000e-01 0.0000000e+00 9.4000000e-03 
1.9700000e-01 -2.0000000e-03 9.4000000e-03 
1.8943000e-01 0.0000000e+00 9.7850000e-03 
1.8809500e-01 0.0000000e+00 1.4300000e-03 
1.8943000e-01 -2.0000000e-03 9.7850000e-03 
1.8809500e-01 -2.0000000e-03 1.4300000e-03 
1.8186000e-01 0.0000000e+00 1.0170000e-02 
1.8186000e-01 -2.0000000e-03 1.0170000e-02 
1.7919000e-01 0.0000000e+00 1.1600000e-03 
1.7919000e-01 -2.0000000e-03 1.1600000e-03 
1.7429000e-01 0.0000000e+00 1.0555000e-02 
1.7429000e-01 -2.0000000e-03 1.0555000e-02 
1.7028500e-01 0.0000000e+00 8.9000000e-04 
1.7028500e-01 -2.0000000e-03 8.9000000e-04 
1.6672000e-01 0.0000000e+00 1.0940000e-02 
1.6672000e-01 -2.0000000e-03 1.0940000e-02 
1.6138000e-01 0.0000000e+00 6.2000000e-04 
1.6138000e-01 -2.0000000e-03 6.2000000e-04 
1.5915000e-01 0.0000000e+00 1.1325000e-02 
1.5915000e-01 -2.0000000e-03 1.1325000e-02 
1.5247500e-01 0.0000000e+00 3.5000000e-04 
1.5247500e-01 -2.0000000e-03 3.5000000e-04 
1.5158000e-01 0.0000000e+00 1.1710000e-02 
1.5158000e-01 -2.0000000e-03 1.1710000e-02 
1.4357000e-01 0.0000000e+00 8.0000000e-05 
1.4357000e-01 -2.0000000e-03 8.0000000e-05 
1.4401000e-01 0.0000000e+00 1.2095000e-02 
1.4401000e-01 -2.0000000e-03 1.2095000e-02 
1.3644000e-01 0.0000000e+00 1.2480000e-02 
1.3644000e-01 -2.0000000e-03 1.2480000e-02 
1.3466500e-01 0.0000000e+00 -1.9000000e-04 
1.3466500e-01 -2.0000000e-03 -1.9000000e-04 
1.2887000e-01 0.0000000e+00 1.2865000e-02 
1.2887000e-01 -2.0000000e-03 1.2865000e-02 
1.2576000e-01 0.0000000e+00 -4.6000000e-04 
1.2576000e-01 -2.0000000e-03 -4.6000000e-04 
1.2130000e-01 0.0000000e+00 1.3250000e-02 
1.2130000e-01 -2.0000000e-03 1.3250000e-02 
1.1685500e-01 0.0000000e+00 -7.3000000e-04 
1.1685500e-01 -2.0000000e-03 -7.3000000e-04 
1.1373000e-01 0.0000000e+00 1.3635000e-02 
1.1373000e-01 -2.0000000e-03 1.3635000e-02 
1.0795000e-01 0.0000000e+00 -1.0000000e-03 
1.0795000e-01 -2.0000000e-03 -1.0000000e-03 
1.0616000e-01 0.0000000e+00 1.4020000e-02 
1.0616000e-01 -2.0000000e-03 1.4020000e-02 
9.9045000e-02 0.0000000e+00 -1.2700000e-03 
9.9045000e-02 -2.0000000e-03 -1.2700000e-03 
9.8590000e-02 0.0000000e+00 1.4405000e-02 
9.8590000e-02 -2.0000000e-03 1.4405000e-02 
9.1020000e-02 0.0000000e+00 1.4790000e-02 
9.1020000e-02 -2.0000000e-03 1.4790000e-02 
9.0140000e-02 0.0000000e+00 -1.5400000e-03 
9.0140000e-02 -2.0000000e-03 -1.5400000e-03 
8.3450000e-02 0.0000000e+00 1.5175000e-02 
8.3450000e-02 -2.0000000e-03 1.5175000e-02 
8.1235000e-02 0.0000000e+00 -1.8100000e-03 
8.1235000e-02 -2.0000000e-03 -1.8100000e-03 
7.5880000e-02 0.0000000e+00 1.5560000e-02 
7.5880000e-02 -2.0000000e-03 1.5560000e-02 
7.2330000e-02 0.0000000e+00 -2.0800000e-03 
7.2330000e-02 -2.0000000e-03 -2.0800000e-03 
6.8310000e-02 0.0000000e+00 1.5945000e-02 
6.8310000e-02 -2.0000000e-03 1.5945000e-02 
6.3425000e-02 0.0000000e+00 -2.3500000e-03 
6.3425000e-02 -2.0000000e-03 -2.3500000e-03 
6.0740000e-02 0.0000000e+00 1.6330000e-02 
6.0740000e-02 -2.0000000e-03 1.6330000e-02 
5.4520000e-02 0.0000000e+00 -2.6200000e-03 
5.4520000e-02 -2.0000000e-03 -2.6200000e-03 
5.3170000e-02 0.0000000e+00 1.6715000e-02 
5.3170000e-02 -2.0000000e-03 1.6715000e-02 
4.5615000e-02 0.0000000e+00 -2.8900000e-03 
4.5615000e-02 -2.0000000e-03 -2.8900000e-03 
4.5600000e-02 0.0000000e+00 1.7100000e-02 
4.5600000e-02 -2.0000000e-03 1.7100000e-02 
3.9437095e-02 0.0000000e+00 1.7147246e-02 
3.9437095e-02 -2.0000000e-03 1.7147246e-02 
3.6710000e-02 0.0000000e+00 -3.1600000e-03 
3.6710000e-02 -2.0000000e-03 -3.1600000e-03 
3.2950487e-02 0.0000000e+00 1.6732573e-02 
3.2950487e-02 -2.0000000e-03 1.6732573e-02 
2.7805000e-02 0.0000000e+00 -3.4300000e-03 
2.7805000e-02 -2.0000000e-03 -3.4300000e-03 
2.6954329e-02 0.0000000e+00 1.5782446e-02 
2.6954329e-02 -2.0000000e-03 1.5782446e-02 
2.1485588e-02 0.0000000e+00 1.4619751e-02 
2.1485588e-02 -2.0000000e-03 1.4619751e-02 
1.8900000e-02 0.0000000e+00 -3.7000000e-03 
1.8900000e-02 -2.0000000e-03 -3.7000000e-03 
1.6577982e-02 0.0000000e+00 1.3218783e-02 
1.6577982e-02 -2.0000000e-03 1.3218783e-02 
1.2261766e-02 0.0000000e+00 -3.6772060e-03 
1.2261766e-02 -2.0000000e-03 -3.6772060e-03 
1.2261766e-02 0.0000000e+00 1.1601316e-02 
1.2261766e-02 -2.0000000e-03 1.1601316e-02 
8.5635530e-03 0.0000000e+00 -3.4292840e-03 
8.5635530e-03 -2.0000000e-03 -3.4292840e-03 
8.5635530e-03 0.0000000e+00 9.8287860e-03 
8.5635530e-03 -2.0000000e-03 9.8287860e-03 
5.5061420e-03 0.0000000e+00 -2.9618110e-03 
5.5061420e-03 -2.0000000e-03 -2.9618110e-03 
5.5061420e-03 0.0000000e+00 7.9610410e-03 
5.5061420e-03 -2.0000000e-03 7.9610410e-03 
3.1083840e-03 0.0000000e+00 -2.3027950e-03 
3.1083840e-03 -2.0000000e-03 -2.3027950e-03 
3.1083840e-03 0.0000000e+00 6.0311380e-03 
3.1083840e-03 -2.0000000e-03 6.0311380e-03 
1.3850620e-03 0.0000000e+00 -1.6710370e-03 
1.3850620e-03 -2.0000000e-03 -1.6710370e-03 
1.3850620e-03 0.0000000e+00 4.3751030e-03 
1.3850620e-03 -2.0000000e-03 4.3751030e-03 
3.4680000e-04 0.0000000e+00 -8.2906700e-04 
3.4680000e-04 -2.0000000e-03 -8.2906700e-04 
3.4680000e-04 0.0000000e+00 2.4029600e-03 
3.4680000e-04 -2.0000000e-03 2.4029600e-03 
0.0000000e+00 0.0000000e+00 1.2000000e-03 
0.0000000e+00 -2.0000000e-03 1.2000000e-03 

CELLS 61 305
4 1 0 4 5
4 1 3 2 0
4 4 6 8 5
4 6 10 11 8
4 10 14 15 11
4 14 18 19 15
4 18 22 23 19
4 22 26 27 23
4 26 30 31 27
4 30 32 33 31
4 32 36 37 33
4 36 40 41 37
4 40 44 45 41
4 44 48 49 45
4 48 52 53 49
4 52 54 55 53
4 54 58 59 55
4 58 62 63 59
4 62 66 67 63
4 66 70 71 67
4 70 74 75 71
4 74 78 79 75
4 9 7 2 3
4 13 12 7 9
4 17 16 12 13
4 21 20 16 17
4 25 24 20 21
4 29 28 24 25
4 35 34 28 29
4 39 38 34 35
4 43 42 38 39
4 47 46 42 43
4 51 50 46 47
4 57 56 50 51
4 61 60 56 57
4 65 64 60 61
4 69 68 64 65
4 73 72 68 69
4 77 76 72 73
4 83 82 76 77
4 87 86 82 83
4 93 92 86 87
4 97 96 92 93
4 101 100 96 97
4 105 104 100 101
4 109 108 104 105
4 113 112 108 109
4 117 116 112 113
4 121 120 116 117
4 119 118 120 121
4 115 114 118 119
4 111 110 114 115
4 107 106 110 111
4 103 102 106 107
4 99 98 102 103
4 95 94 98 99
4 91 90 94 95
4 89 88 90 91
4 85 84 88 89
4 81 80 84 85
4 79 78 80 81

CELL_TYPES 61
9
9
9
9
9
9
9
9
9
9
9
9
9
9
9
9
9
9
9
9
9
9
9
9
9
9
9
9
9
9
9
9
9
9
9
9
9
9
9
9
9
9
9
9
9
9
9
9
9
9
9
9
9
9
9
9
9
9
9
9
9
POINT_DATA 122
FIELD FieldData 2
DISPLACEMENT 3 122  float
0.0000000e+00 0.0000000e+00 0.0000000e+00 
0.0000000e+00 0.0000000e+00 0.0000000e+00 
0.0000000e+00 0.0000000e+00 0.0000000e+00 
0.0000000e+00 0.0000000e+00 0.0000000e+00 
0.0000000e+00 0.0000000e+00 0.0000000e+00 
0.0000000e+00 0.0000000e+00 0.0000000e+00 
4.0320285e-05 -2.5516913e-05 -1.7692078e-03 
1.1554526e-04 -2.5563407e-05 2.2834202e-03 
4.0320285e-05 2.5516913e-05 -1.7692078e-03 
1.1554526e-04 2.5563407e-05 2.2834202e-03 
4.8990218e-05 -1.8830217e-05 -3.3536297e-03 
4.8990218e-05 1.8830217e-05 -3.3536297e-03 
1.8009865e-04 -1.8806034e-05 4.3296766e-03 
1.8009865e-04 1.8806034e-05 4.3296766e-03 
3.0559690e-05 -2.0560946e-05 -4.7525672e-03 
3.0559690e-05 2.0560946e-05 -4.7525672e-03 
2.0007973e-04 -2.0570425e-05 6.1375522e-03 
2.0007973e-04 2.0570425e-05 6.1375522e-03 
-1.0421232e-05 -2.0111524e-05 -5.9654079e-03 
-1.0421232e-05 2.0111524e-05 -5.9654079e-03 
1.8191845e-04 -2.0108229e-05 7.7059474e-03 
1.8191845e-04 2.0108229e-05 7.7059474e-03 
-6.9388978e-05 -2.0228129e-05 -6.9916577e-03 
-6.9388978e-05 2.0228129e-05 -6.9916577e-03 
1.3207018e-04 -2.0229202e-05 9.0339304e-03 
1.3207018e-04 2.0229202e-05 9.0339304e-03 
-1.4176974e-04 -2.0197868e-05 -7.8309319e-03 
-1.4176974e-04 2.0197868e-05 -7.8309319e-03 
5.7011454e-05 -2.0197532e-05 1.0120737e-02 
5.7011454e-05 2.0197532e-05 1.0120737e-02 
-2.2298168e-04 -2.0205721e-05 -8.4829580e-03 
-2.2298168e-04 2.0205721e-05 -8.4829580e-03 
-3.0843766e-04 -2.0203681e-05 -8.9475760e-03 
-3.0843766e-04 2.0203681e-05 -8.9475760e-03 
-3.6763331e-05 -2.0205823e-05 1.0965775e-02 
-3.6763331e-05 2.0205823e-05 1.0965775e-02 
-3.9354804e-04 -2.0204219e-05 -9.2247382e-03 
-3.9354804e-04 2.0204219e-05 -9.2247382e-03 
-1.4274619e-04 -2.0203651e-05 1.1568628e-02 
-1.4274619e-04 2.0203651e-05 1.1568628e-02 
-4.7372341e-04 -2.0204046e-05 -9.3145096e-03 
-4.7372341e-04 2.0204046e-05 -9.3145096e-03 
-2.5442041e-04 -2.0204229e-05 1.1929057e-02 
-2.5442041e-04 2.0204229e-05 1.1929057e-02 
-5.4437734e-04 -2.0204219e-05 -9.2170672e-03 
-5.4437734e-04 2.0204219e-05 -9.2170672e-03 
-3.6526550e-04 -2.0204041e-05 1.2046997e-02 
-3.6526550e-04 2.0204041e-05 1.2046997e-02 
-6.0092909e-04 -2.0203681e-05 -8.9327002e-03 
-6.0092909e-04 2.0203681e-05 -8.9327002e-03 
-4.6876166e-04 -2.0204229e-05 1.1922559e-02 
-4.6876166e-04 2.0204229e-05 1.1922559e-02 
-6.3880637e-04 -2.0205721e-05 -8.4618097e-03 
-6.3880637e-04 2.0205721e-05 -8.4618097e-03 
-6.5344803e-04 -2.0197868e-05 -7.8049086e-03 
-6.5344803e-04 2.0197868e-05 -7.8049086e-03 
-5.5839437e-04 -2.0203651e-05 1.1556026e-02 
-5.5839437e-04 2.0203651e-05 1.1556026e-02 
-6.4030687e-04 -2.0228129e-05 -6.9626216e-03 
-6.4030687e-04 2.0228129e-05 -6.9626216e-03 
-6.2765904e-04 -2.0205823e-05 1.0947859e-02 
-6.2765904e-04 2.0205823e-05 1.0947859e-02 
-5.9485230e-04 -2.0111524e-05 -5.9356846e-03 
-5.9485230e-04 2.0111524e-05 -5.9356846e-03 
-6.7006543e-04 -2.0197532e-05 1.0098692e-02 
-6.7006543e-04 2.0197532e-05 1.0098692e-02 
-5.1257315e-04 -2.0560946e-05 -4.7249442e-03 
-5.1257315e-04 2.0560946e-05 -4.7249442e-03 
-6.7914278e-04 -2.0229202e-05 9.0093344e-03 
-6.7914278e-04 2.0229202e-05 9.0093344e-03 
-3.8897954e-04 -1.8830217e-05 -3.3313552e-03 
-3.8897954e-04 1.8830217e-05 -3.3313552e-03 
-6.4844443e-04 -2.0108229e-05 7.6807707e-03 
-6.4844443e-04 2.0108229e-05 7.6807707e-03 
-2.1960701e-04 -2.5516913e-05 -1.7559883e-03 
-2.1960701e-04 2.5516913e-05 -1.7559883e-03 
-5.7155207e-04 -2.0570425e-05 6.1141563e-03 
-5.7155207e-04 2.0570425e-05 6.1141563e-03 
0.0000000e+00 0.0000000e+00 0.0000000e+00 
0.0000000e+00 0.0000000e+00 0.0000000e+00 
0.0000000e+00 0.0000000e+00 0.0000000e+00 
0.0000000e+00 0.0000000e+00 0.0000000e+00 
-4.4207866e-04 -1.8806034e-05 4.3108121e-03 
-4.4207866e-04 1.8806034e-05 4.3108121e-03 
0.0000000e+00 0.0000000e+00 0.0000000e+00 
0.0000000e+00 0.0000000e+00 0.0000000e+00 
-2.5367264e-04 -2.5563407e-05 2.2722255e-03 
-2.5367264e-04 2.5563407e-05 2.2722255e-03 
0.0000000e+00 0.0000000e+00 0.0000000e+00 
0.0000000e+00 0.0000000e+00 0.0000000e+00 
0.0000000e+00 0.0000000e+00 0.0000000e+00 
0.0000000e+00 0.0000000e+00 0.0000000e+00 
0.0000000e+00 0.0000000e+00 0.0000000e+00 
0.0000000e+00 0.0000000e+00 0.0000000e+00 
0.0000000e+00 0.0000000e+00 0.0000000e+00 
0.0000000e+00 0.0000000e+00 0.0000000e+00 
0.0000000e+00 0.0000000e+00 0.0000000e+00 
0.0000000e+00 0.0000000e+00 0.0000000e+00 
0.0000000e+00 0.0000000e+00 0.0000000e+00 
0.0000000e+00 0.0000000e+00 0.0000000e+00 
0.0000000e+00 0.0000000e+00 0.0000000e+00 
0.0000000e+00 0.0000000e+00 0.0000000e+00 
0.0000000e+00 0.0000000e+00 0.0000000e+00 
0.0000000e+00 0.0000000e+00 0.0000000e+00 
0.0000000e+00 0.0000000e+00 0.0000000e+00 
0.0000000e+00 0.0000000e+00 0.0000000e+00 
0.0000000e+00 0.0000000e+00 0.0000000e+00 
0.0000000e+00 0.0000000e+00 0.0000000e+00 
0.0000000e+00 0.0000000e+00 0.0000000e+00 
0.0000000e+00 0.0000000e+00 0.0000000e+00 
0.0000000e+00 0.0000000e+00 0.0000000e+00 
0.0000000e+00 0.0000000e+00 0.0000000e+00 
0.0000000e+00 0.0000000e+00 0.0000000e+00 
0.0000000e+00 0.0000000e+00 0.0000000e+00 
0.0000000e+00 0.0000000e+00 0.0000000e+00 
0.0000000e+00 0.0000000e+00 0.0000000e+00 
0.0000000e+00 0.0000000e+00 0.0000000e+00 
0.0000000e+00 0.0000000e+00 0.0000000e+00 
0.0000000e+00 0.0000000e+00 0.0000000e+00 
0.0000000e+00 0.0000000e+00 0.0000000e+00 
0.0000000e+00 0.0000000e+00 0.0000000e+00 
0.0000000e+00 0.0000000e+00 0.0000000e+00 
REACTION 3 122  float
3.9234705e-02 5.8047999e-01 -7.6378412e-03 
3.9234705e-02 -5.8047999e-01 -7.6378412e-03 
1.1798936e-02 3.3477308e-01 -6.5492593e-03 
1.1798936e-02 -3.3477308e-01 -6.5492593e-03 
1.0948066e-02 3.4219206e-01 1.2327992e-02 
1.0948066e-02 -3.4219206e-01 1.2327992e-02 
1.6810665e-07 -1.5823484e-10 -1.9674748e-08 
1.0681581e-07 -1.2171268e-09 3.2613184e-07 
1.6810670e-07 1.5822680e-10 -1.9674740e-08 
1.0681578e-07 1.2171238e-09 3.2613185e-07 
8.6212413e-08 7.6076337e-12 -8.3337340e-09 
8.6212417e-08 -7.6087886e-12 -8.3337335e-09 
2.0279006e-07 7.1702384e-11 9.1225968e-08 
2.0279002e-07 -7.1686067e-11 9.1225976e-08 
2.4364828e-08 -1.9274339e-13 -9.3419990e-09 
2.4364945e-08 1.7595680e-13 -9.3419852e-09 
9.5576849e-08 -2.2864319e-12 4.3449980e-08 
9.5576646e-08 2.2830194e-12 4.3450013e-08 
-4.7272283e-09 1.0696522e-14 -1.0099509e-08 
-4.7270858e-09 3.3891889e-15 -1.0099495e-08 
-6.5143662e-09 2.0129704e-14 3.8444426e-08 
-6.5144088e-09 -3.4634296e-14 3.8444432e-08 
-1.2724870e-08 7.8120968e-15 -9.9231910e-09 
-1.2724911e-08 1.2217115e-14 -9.9231930e-09 
-5.0445329e-08 -1.3935806e-14 3.7787270e-08 
-5.0445278e-08 1.2147130e-14 3.7787265e-08 
-1.4683111e-08 -4.4558609e-15 -9.7604239e-09 
-1.4683139e-08 -4.3484317e-15 -9.7604258e-09 
-6.8377318e-08 1.0568810e-14 3.9241560e-08 
-6.8377330e-08 3.8236761e-16 3.9241561e-08 
-1.5985970e-08 -7.4536083e-15 -9.1851213e-09 
-1.5985971e-08 -8.3396556e-15 -9.1851221e-09 
-1.3374232e-08 1.0035428e-15 -7.8052907e-09 
-1.3374103e-08 6.6303664e-16 -7.8052911e-09 
-8.4774657e-08 -2.8204401e-15 3.9032562e-08 
-8.4774753e-08 1.7304570e-15 3.9032566e-08 
-6.7223142e-09 2.7206956e-15 -6.5779203e-09 
-6.7222880e-09 2.4023899e-15 -6.5779210e-09 
-8.0866011e-08 -4.0968241e-15 3.1508393e-08 
-8.0866019e-08 -4.3992964e-15 3.1508393e-08 
-3.2110408e-10 -1.2410933e-15 -6.3132548e-09 
-3.2106180e-10 -1.1643468e-15 -6.3132569e-09 
-4.1692742e-08 7.0992627e-16 2.4037742e-08 
-4.1692714e-08 2.4523587e-15 2.4037742e-08 
6.0202274e-09 4.3305592e-17 -7.2259880e-09 
6.0202816e-09 -2.6438408e-16 -7.2259919e-09 
-6.7589292e-10 9.9579287e-16 2.2292194e-08 
-6.7591523e-10 1.1553312e-15 2.2292193e-08 
1.2513245e-08 3.4371166e-15 -9.1218885e-09 
1.2513292e-08 3.4139828e-15 -9.1218929e-09 
4.0159844e-08 -4.9127590e-15 2.6519516e-08 
4.0159833e-08 -1.9818649e-16 2.6519515e-08 
1.4971626e-08 2.7920959e-16 -1.0759585e-08 
1.4971596e-08 2.2456364e-15 -1.0759581e-08 
1.3617126e-08 -1.1030266e-15 -1.1199738e-08 
1.3617120e-08 -5.6185389e-17 -1.1199737e-08 
7.8808526e-08 1.3014449e-16 3.6349731e-08 
7.8808569e-08 -3.1506284e-15 3.6349735e-08 
1.1652482e-08 -7.6983775e-16 -1.1162993e-08 
1.1652462e-08 1.7355366e-16 -1.1162989e-08 
8.2254193e-08 3.0581023e-16 4.4096886e-08 
8.2254239e-08 2.9734761e-15 4.4096891e-08 
3.6781264e-09 2.5686918e-15 -1.0526984e-08 
3.6781268e-09 -9.4832454e-16 -1.0526984e-08 
6.5874287e-08 5.1885274e-15 4.3312074e-08 
6.5874302e-08 -3.8222531e-15 4.3312077e-08 
-2.5186962e-08 -1.8593493e-13 -6.8218511e-09 
-2.5186964e-08 1.8342001e-13 -6.8218508e-09 
4.8063323e-08 -9.8754690e-15 4.0774054e-08 
4.8063321e-08 1.3629641e-14 4.0774053e-08 
-8.6613058e-08 7.6080986e-12 4.5593478e-10 
-8.6613061e-08 -7.6072300e-12 4.5593556e-10 
4.1733034e-09 2.6680942e-14 3.8768482e-08 
4.1732752e-09 -2.6621934e-14 3.8768477e-08 
-1.6923538e-07 -1.5823218e-10 -2.5179795e-09 
-1.6923537e-07 1.5823048e-10 -2.5179811e-09 
-9.8033561e-08 -2.2879473e-12 3.7579726e-08 
-9.8033583e-08 2.2852134e-12 3.7579721e-08 
-9.1455226e-03 1.0659569e-01 8.7765672e-03 
-9.1455226e-03 -1.0659569e-01 8.7765672e-03 
-4.0476049e-05 1.2764239e-01 1.4407000e-03 
-4.0476049e-05 -1.2764239e-01 1.4407000e-03 
-2.0794442e-07 7.1691500e-11 7.8772482e-08 
-2.0794439e-07 -7.1693449e-11 7.8772488e-08 
-2.0735472e-04 1.2671384e-01 1.8689540e-03 
-2.0735472e-04 -1.2671384e-01 1.8689540e-03 
-1.2637808e-07 -1.2171246e-09 3.1906139e-07 
-1.2637808e-07 1.2171274e-09 3.1906139e-07 
-1.9232526e-04 1.1755237e-01 1.0373514e-03 
-1.9232526e-04 -1.1755237e-01 1.0373514e-03 
-3.3367183e-04 1.0780187e-01 1.3415171e-03 
-3.3367183e-04 -1.0780187e-01 1.3415171e-03 
-1.1232560e-02 1.1892715e-01 -9.7599265e-03 
-1.1232560e-02 -1.1892715e-01 -9.7599265e-03 
-5.0758216e-04 9.7906899e-02 1.5404001e-03 
-5.0758216e-04 -9.7906899e-02 1.5404001e-03 
-4.5029929e-05 1.0427545e-01 -1.2792420e-03 
-4.5029929e-05 -1.0427545e-01 -1.2792420e-03 
-6.9828616e-04 8.7800665e-02 1.6390435e-03 
-6.9828616e-04 -8.7800665e-02 1.6390435e-03 
-1.8644755e-04 6.8538519e-02 -1.6985535e-03 
-1.8644755e-04 -6.8538519e-02 -1.6985535e-03 
-9.7586534e-04 7.7452933e-02 1.7962553e-03 
-9.7586534e-04 -7.7452933e-02 1.7962553e-03 
-4.8926152e-04 5.6242530e-02 -2.2957657e-03 
-4.8926152e-04 -5.6242530e-02 -2.2957657e-03 
-1.4989712e-03 6.7140035e-02 2.1308350e-03 
-1.4989712e-03 -6.7140035e-02 2.1308350e-03 
-5.1094575e-04 4.3567226e-02 -1.5961616e-03 
-5.1094575e-04 -4.3567226e-02 -1.5961616e-03 
-1.1686440e-03 5.5117326e-02 1.3281542e-03 
-1.1686440e-03 -5.5117326e-02 1.3281542e-03 
-3.2698035e-03 3.1976000e-02 -5.7590978e-03 
-3.2698035e-03 -3.1976000e-02 -5.7590978e-03 
-5.1447145e-03 4.6557423e-02 3.8701980e-03 
-5.1447145e-03 -4.6557423e-02 3.8701980e-03 
-1.2261978e-02 3.4224028e-02 -7.1737940e-03 
-1.2261978e-02 -3.4224028e-02 -7.1737940e-03 
-3.8070452e-03 3.5085494e-02 1.5322313e-03 
-3.8070452e-03 -3.5085494e-02 1.5322313e-03 
-8.9808861e-03 3.3369257e-02 5.0074451e-04 
-8.9808861e-03 -3.3369257e-02 5.0074451e-04 
CELL_DATA 61
FIELD FieldData 0
