# vtk DataFile Version 4.0
vtk output
ASCII
DATASET UNSTRUCTURED_GRID
POINTS 824 float
-6.4148600e-05 1.0000000e-02 -4.4525366e-03 
-1.0680180e-04 1.0000000e-02 -2.8088474e-03 
3.4513260e-04 1.0000000e-02 -6.0450544e-03 
1.3803532e-03 1.0000000e-02 -7.3230534e-03 
6.5829700e-05 1.0000000e-02 -1.1736922e-03 
2.7142144e-03 1.0000000e-02 -8.2851896e-03 
5.0392030e-04 1.0000000e-02 6.5784910e-04 
4.1780764e-03 1.0000000e-02 -9.0342357e-03 
1.1628646e-03 1.0000000e-02 2.4220088e-03 
5.7070961e-03 1.0000000e-02 -9.6390187e-03 
2.0046218e-03 1.0000000e-02 4.1066196e-03 
7.2731595e-03 1.0000000e-02 -1.0140047e-02 
-6.4148600e-05 0.0000000e+00 -4.4525366e-03 
-1.0680180e-04 0.0000000e+00 -2.8088474e-03 
3.4513260e-04 0.0000000e+00 -6.0450544e-03 
1.3803532e-03 0.0000000e+00 -7.3230534e-03 
6.5829700e-05 0.0000000e+00 -1.1736922e-03 
2.9952540e-03 1.0000000e-02 5.7082181e-03 
8.8622628e-03 1.0000000e-02 -1.0562311e-02 
2.7142144e-03 0.0000000e+00 -8.2851896e-03 
5.0392030e-04 0.0000000e+00 6.5784910e-04 
4.1780764e-03 0.0000000e+00 -9.0342357e-03 
1.1628646e-03 0.0000000e+00 2.4220088e-03 
1.0466628e-02 1.0000000e-02 -1.0922252e-02 
4.1067238e-03 1.0000000e-02 7.2284501e-03 
5.7070961e-03 0.0000000e+00 -9.6390187e-03 
2.0046218e-03 0.0000000e+00 4.1066196e-03 
7.2731595e-03 0.0000000e+00 -1.0140047e-02 
1.2081579e-02 1.0000000e-02 -1.1231240e-02 
5.3166988e-03 1.0000000e-02 8.6715129e-03 
2.9952540e-03 0.0000000e+00 5.7082181e-03 
8.8622628e-03 0.0000000e+00 -1.0562311e-02 
1.3704120e-02 1.0000000e-02 -1.1497501e-02 
1.0466628e-02 0.0000000e+00 -1.0922252e-02 
4.1067238e-03 0.0000000e+00 7.2284501e-03 
6.6076374e-03 1.0000000e-02 1.0042624e-02 
1.5332244e-02 1.0000000e-02 -1.1727173e-02 
1.2081579e-02 0.0000000e+00 -1.1231240e-02 
5.3166988e-03 0.0000000e+00 8.6715129e-03 
7.9658343e-03 1.0000000e-02 1.1347144e-02 
1.3704120e-02 0.0000000e+00 -1.1497501e-02 
1.6964543e-02 1.0000000e-02 -1.1925002e-02 
6.6076374e-03 0.0000000e+00 1.0042624e-02 
9.3804686e-03 1.0000000e-02 1.2590236e-02 
1.5332244e-02 0.0000000e+00 -1.1727173e-02 
1.8600004e-02 1.0000000e-02 -1.2094716e-02 
7.9658343e-03 0.0000000e+00 1.1347144e-02 
1.6964543e-02 0.0000000e+00 -1.1925002e-02 
1.0843002e-02 1.0000000e-02 1.3776601e-02 
2.0237876e-02 1.0000000e-02 -1.2239318e-02 
9.3804686e-03 0.0000000e+00 1.2590236e-02 
1.8600004e-02 0.0000000e+00 -1.2094716e-02 
1.2346566e-02 1.0000000e-02 1.4910517e-02 
2.1877591e-02 1.0000000e-02 -1.2361246e-02 
1.0843002e-02 0.0000000e+00 1.3776601e-02 
2.0237876e-02 0.0000000e+00 -1.2239318e-02 
1.3885623e-02 1.0000000e-02 1.5995768e-02 
2.3518711e-02 1.0000000e-02 -1.2462540e-02 
1.2346566e-02 0.0000000e+00 1.4910517e-02 
2.1877591e-02 0.0000000e+00 -1.2361246e-02 
2.5160890e-02 1.0000000e-02 -1.2544903e-02 
1.5455654e-02 1.0000000e-02 1.7035707e-02 
1.3885623e-02 0.0000000e+00 1.5995768e-02 
2.3518711e-02 0.0000000e+00 -1.2462540e-02 
2.6803852e-02 1.0000000e-02 -1.2609772e-02 
1.7052912e-02 1.0000000e-02 1.8033321e-02 
2.5160890e-02 0.0000000e+00 -1.2544903e-02 
1.5455654e-02 0.0000000e+00 1.7035707e-02 
2.8447376e-02 1.0000000e-02 -1.2658389e-02 
2.6803852e-02 0.0000000e+00 -1.2609772e-02 
1.7052912e-02 0.0000000e+00 1.8033321e-02 
1.8674284e-02 1.0000000e-02 1.8991246e-02 
3.0091279e-02 1.0000000e-02 -1.2691814e-02 
2.8447376e-02 0.0000000e+00 -1.2658389e-02 
1.8674284e-02 0.0000000e+00 1.8991246e-02 
2.0317149e-02 1.0000000e-02 1.9911822e-02 
3.0091279e-02 0.0000000e+00 -1.2691814e-02 
3.1735410e-02 1.0000000e-02 -1.2710971e-02 
2.0317149e-02 0.0000000e+00 1.9911822e-02 
2.1979295e-02 1.0000000e-02 2.0797113e-02 
3.1735410e-02 0.0000000e+00 -1.2710971e-02 
3.3379643e-02 1.0000000e-02 -1.2716676e-02 
2.1979295e-02 0.0000000e+00 2.0797113e-02 
2.3658832e-02 1.0000000e-02 2.1648949e-02 
3.3379643e-02 0.0000000e+00 -1.2716676e-02 
3.5023871e-02 1.0000000e-02 -1.2709629e-02 
2.3658832e-02 0.0000000e+00 2.1648949e-02 
2.5354100e-02 1.0000000e-02 2.2469029e-02 
3.5023871e-02 0.0000000e+00 -1.2709629e-02 
3.6668001e-02 1.0000000e-02 -1.2690457e-02 
2.5354100e-02 0.0000000e+00 2.2469029e-02 
2.7063712e-02 1.0000000e-02 2.3258772e-02 
3.6668001e-02 0.0000000e+00 -1.2690457e-02 
3.8312016e-02 1.0000000e-02 -1.2663038e-02 
2.7063712e-02 0.0000000e+00 2.3258772e-02 
3.8312016e-02 0.0000000e+00 -1.2663038e-02 
2.8786417e-02 1.0000000e-02 2.4019532e-02 
3.9956032e-02 1.0000000e-02 -1.2635752e-02 
2.8786417e-02 0.0000000e+00 2.4019532e-02 
3.9956032e-02 0.0000000e+00 -1.2635752e-02 
3.0521135e-02 1.0000000e-02 2.4752486e-02 
4.1600048e-02 1.0000000e-02 -1.2608467e-02 
3.0521135e-02 0.0000000e+00 2.4752486e-02 
4.1600048e-02 0.0000000e+00 -1.2608467e-02 
3.2266919e-02 1.0000000e-02 2.5458676e-02 
4.3299814e-02 1.0000000e-02 -1.2580255e-02 
3.2266919e-02 0.0000000e+00 2.5458676e-02 
4.3299814e-02 0.0000000e+00 -1.2580255e-02 
3.4022902e-02 1.0000000e-02 2.6139111e-02 
4.5339533e-02 1.0000000e-02 -1.2546402e-02 
3.4022902e-02 0.0000000e+00 2.6139111e-02 
4.5339533e-02 0.0000000e+00 -1.2546402e-02 
3.5788340e-02 1.0000000e-02 2.6794623e-02 
4.7787196e-02 1.0000000e-02 -1.2505778e-02 
3.5788340e-02 0.0000000e+00 2.6794623e-02 
3.7562554e-02 1.0000000e-02 2.7425996e-02 
4.7787196e-02 0.0000000e+00 -1.2505778e-02 
3.7562554e-02 0.0000000e+00 2.7425996e-02 
3.9344928e-02 1.0000000e-02 2.8033950e-02 
5.0379113e-02 1.0000000e-02 -1.2462760e-02 
3.9344928e-02 0.0000000e+00 2.8033950e-02 
5.0379113e-02 0.0000000e+00 -1.2462760e-02 
4.1134916e-02 1.0000000e-02 2.8619109e-02 
5.2971029e-02 1.0000000e-02 -1.2419741e-02 
4.1134916e-02 0.0000000e+00 2.8619109e-02 
5.2971029e-02 0.0000000e+00 -1.2419741e-02 
4.2932026e-02 1.0000000e-02 2.9182016e-02 
4.2932026e-02 0.0000000e+00 2.9182016e-02 
5.5562946e-02 1.0000000e-02 -1.2376723e-02 
4.5339682e-02 1.0000000e-02 2.9899231e-02 
5.5562946e-02 0.0000000e+00 -1.2376723e-02 
4.5339682e-02 0.0000000e+00 2.9899231e-02 
5.8154863e-02 1.0000000e-02 -1.2333705e-02 
4.7758221e-02 1.0000000e-02 3.0578844e-02 
5.8154863e-02 0.0000000e+00 -1.2333705e-02 
4.7758221e-02 0.0000000e+00 3.0578844e-02 
6.0746779e-02 1.0000000e-02 -1.2290686e-02 
5.0186760e-02 1.0000000e-02 3.1221807e-02 
6.0746779e-02 0.0000000e+00 -1.2290686e-02 
5.0186760e-02 0.0000000e+00 3.1221807e-02 
6.3338696e-02 1.0000000e-02 -1.2247668e-02 
5.2624513e-02 1.0000000e-02 3.1828903e-02 
6.3338696e-02 0.0000000e+00 -1.2247668e-02 
5.2624513e-02 0.0000000e+00 3.1828903e-02 
5.5070762e-02 1.0000000e-02 3.2400804e-02 
6.5930613e-02 1.0000000e-02 -1.2204650e-02 
5.5070762e-02 0.0000000e+00 3.2400804e-02 
6.5930613e-02 0.0000000e+00 -1.2204650e-02 
5.7524847e-02 1.0000000e-02 3.2938082e-02 
6.8522529e-02 1.0000000e-02 -1.2161631e-02 
5.7524847e-02 0.0000000e+00 3.2938082e-02 
6.8522529e-02 0.0000000e+00 -1.2161631e-02 
5.9986169e-02 1.0000000e-02 3.3441170e-02 
7.1114446e-02 1.0000000e-02 -1.2118613e-02 
5.9986169e-02 0.0000000e+00 3.3441170e-02 
7.1114446e-02 0.0000000e+00 -1.2118613e-02 
6.2454163e-02 1.0000000e-02 3.3910436e-02 
6.2454163e-02 0.0000000e+00 3.3910436e-02 
7.3706362e-02 1.0000000e-02 -1.2075595e-02 
7.3706362e-02 0.0000000e+00 -1.2075595e-02 
6.4928303e-02 1.0000000e-02 3.4346139e-02 
6.4928303e-02 0.0000000e+00 3.4346139e-02 
7.6298279e-02 1.0000000e-02 -1.2032577e-02 
7.6298279e-02 0.0000000e+00 -1.2032577e-02 
6.7408092e-02 1.0000000e-02 3.4748446e-02 
6.7408092e-02 0.0000000e+00 3.4748446e-02 
7.8890196e-02 1.0000000e-02 -1.1989558e-02 
7.8890196e-02 0.0000000e+00 -1.1989558e-02 
6.9893057e-02 1.0000000e-02 3.5117436e-02 
6.9893057e-02 0.0000000e+00 3.5117436e-02 
8.1482112e-02 1.0000000e-02 -1.1946540e-02 
8.1482112e-02 0.0000000e+00 -1.1946540e-02 
7.2382742e-02 1.0000000e-02 3.5453098e-02 
7.2382742e-02 0.0000000e+00 3.5453098e-02 
8.4074029e-02 1.0000000e-02 -1.1903522e-02 
7.4876707e-02 1.0000000e-02 3.5755332e-02 
8.4074029e-02 0.0000000e+00 -1.1903522e-02 
7.4876707e-02 0.0000000e+00 3.5755332e-02 
8.6665946e-02 1.0000000e-02 -1.1860503e-02 
7.7374516e-02 1.0000000e-02 3.6023948e-02 
8.6665946e-02 0.0000000e+00 -1.1860503e-02 
7.7374516e-02 0.0000000e+00 3.6023948e-02 
8.9257862e-02 1.0000000e-02 -1.1817485e-02 
7.9875738e-02 1.0000000e-02 3.6258665e-02 
8.9257862e-02 0.0000000e+00 -1.1817485e-02 
7.9875738e-02 0.0000000e+00 3.6258665e-02 
8.2379940e-02 1.0000000e-02 3.6459105e-02 
9.1849779e-02 1.0000000e-02 -1.1774467e-02 
8.2379940e-02 0.0000000e+00 3.6459105e-02 
9.1849779e-02 0.0000000e+00 -1.1774467e-02 
8.4886681e-02 1.0000000e-02 3.6624786e-02 
9.4441696e-02 1.0000000e-02 -1.1731448e-02 
8.4886681e-02 0.0000000e+00 3.6624786e-02 
9.4441696e-02 0.0000000e+00 -1.1731448e-02 
8.7395510e-02 1.0000000e-02 3.6755108e-02 
8.7395510e-02 0.0000000e+00 3.6755108e-02 
9.7033612e-02 1.0000000e-02 -1.1688430e-02 
9.7033612e-02 0.0000000e+00 -1.1688430e-02 
8.9905951e-02 1.0000000e-02 3.6849401e-02 
8.9905951e-02 0.0000000e+00 3.6849401e-02 
9.9625529e-02 1.0000000e-02 -1.1645412e-02 
9.9625529e-02 0.0000000e+00 -1.1645412e-02 
9.2417505e-02 1.0000000e-02 3.6906832e-02 
9.2417505e-02 0.0000000e+00 3.6906832e-02 
1.0221745e-01 1.0000000e-02 -1.1602393e-02 
1.0221745e-01 0.0000000e+00 -1.1602393e-02 
9.4929640e-02 1.0000000e-02 3.6926425e-02 
9.4929640e-02 0.0000000e+00 3.6926425e-02 
1.0480936e-01 1.0000000e-02 -1.1559375e-02 
1.0480936e-01 0.0000000e+00 -1.1559375e-02 
9.7441776e-02 1.0000000e-02 3.6907077e-02 
9.7441776e-02 0.0000000e+00 3.6907077e-02 
1.0740128e-01 1.0000000e-02 -1.1516357e-02 
1.0740128e-01 0.0000000e+00 -1.1516357e-02 
9.9953281e-02 1.0000000e-02 3.6847529e-02 
9.9953281e-02 0.0000000e+00 3.6847529e-02 
1.0999320e-01 1.0000000e-02 -1.1473339e-02 
1.0246345e-01 1.0000000e-02 3.6746314e-02 
1.0999320e-01 0.0000000e+00 -1.1473339e-02 
1.0246345e-01 0.0000000e+00 3.6746314e-02 
1.0497150e-01 1.0000000e-02 3.6601738e-02 
1.1258511e-01 1.0000000e-02 -1.1430320e-02 
1.0497150e-01 0.0000000e+00 3.6601738e-02 
1.1258511e-01 0.0000000e+00 -1.1430320e-02 
1.0747666e-01 1.0000000e-02 3.6413638e-02 
1.1517703e-01 1.0000000e-02 -1.1387302e-02 
1.0747666e-01 0.0000000e+00 3.6413638e-02 
[...]
POINT_DATA 824
FIELD FieldData 2
DISPLACEMENT 3 824  float
0.0000000e+00 0.0000000e+00 0.0000000e+00 
0.0000000e+00 0.0000000e+00 0.0000000e+00 
0.0000000e+00 0.0000000e+00 0.0000000e+00 
0.0000000e+00 0.0000000e+00 0.0000000e+00 
0.0000000e+00 0.0000000e+00 0.0000000e+00 
0.0000000e+00 0.0000000e+00 0.0000000e+00 
0.0000000e+00 0.0000000e+00 0.0000000e+00 
0.0000000e+00 0.0000000e+00 0.0000000e+00 
0.0000000e+00 0.0000000e+00 0.0000000e+00 
0.0000000e+00 0.0000000e+00 0.0000000e+00 
0.0000000e+00 0.0000000e+00 0.0000000e+00 
0.0000000e+00 0.0000000e+00 0.0000000e+00 
0.0000000e+00 0.0000000e+00 0.0000000e+00 
0.0000000e+00 0.0000000e+00 0.0000000e+00 
0.0000000e+00 0.0000000e+00 0.0000000e+00 
0.0000000e+00 0.0000000e+00 0.0000000e+00 
0.0000000e+00 0.0000000e+00 0.0000000e+00 
0.0000000e+00 0.0000000e+00 0.0000000e+00 
0.0000000e+00 0.0000000e+00 0.0000000e+00 
0.0000000e+00 0.0000000e+00 0.0000000e+00 
0.0000000e+00 0.0000000e+00 0.0000000e+00 
0.0000000e+00 0.0000000e+00 0.0000000e+00 
0.0000000e+00 0.0000000e+00 0.0000000e+00 
0.0000000e+00 0.0000000e+00 0.0000000e+00 
0.0000000e+00 0.0000000e+00 0.0000000e+00 
0.0000000e+00 0.0000000e+00 0.0000000e+00 
0.0000000e+00 0.0000000e+00 0.0000000e+00 
0.0000000e+00 0.0000000e+00 0.0000000e+00 
0.0000000e+00 0.0000000e+00 0.0000000e+00 
0.0000000e+00 0.0000000e+00 0.0000000e+00 
0.0000000e+00 0.0000000e+00 0.0000000e+00 
0.0000000e+00 0.0000000e+00 0.0000000e+00 
0.0000000e+00 0.0000000e+00 0.0000000e+00 
0.0000000e+00 0.0000000e+00 0.0000000e+00 
0.0000000e+00 0.0000000e+00 0.0000000e+00 
0.0000000e+00 0.0000000e+00 0.0000000e+00 
0.0000000e+00 0.0000000e+00 0.0000000e+00 
0.0000000e+00 0.0000000e+00 0.0000000e+00 
0.0000000e+00 0.0000000e+00 0.0000000e+00 
0.0000000e+00 0.0000000e+00 0.0000000e+00 
0.0000000e+00 0.0000000e+00 0.0000000e+00 
0.0000000e+00 0.0000000e+00 0.0000000e+00 
0.0000000e+00 0.0000000e+00 0.0000000e+00 
0.0000000e+00 0.0000000e+00 0.0000000e+00 
0.0000000e+00 0.0000000e+00 0.0000000e+00 
0.0000000e+00 0.0000000e+00 0.0000000e+00 
0.0000000e+00 0.0000000e+00 0.0000000e+00 
0.0000000e+00 0.0000000e+00 0.0000000e+00 
0.0000000e+00 0.0000000e+00 0.0000000e+00 
0.0000000e+00 0.0000000e+00 0.0000000e+00 
0.0000000e+00 0.0000000e+00 0.0000000e+00 
0.0000000e+00 0.0000000e+00 0.0000000e+00 
0.0000000e+00 0.0000000e+00 0.0000000e+00 
0.0000000e+00 0.0000000e+00 0.0000000e+00 
0.0000000e+00 0.0000000e+00 0.0000000e+00 
0.0000000e+00 0.0000000e+00 0.0000000e+00 
0.0000000e+00 0.0000000e+00 0.0000000e+00 
0.0000000e+00 0.0000000e+00 0.0000000e+00 
0.0000000e+00 0.0000000e+00 0.0000000e+00 
0.0000000e+00 0.0000000e+00 0.0000000e+00 
0.0000000e+00 0.0000000e+00 0.0000000e+00 
0.0000000e+00 0.0000000e+00 0.0000000e+00 
0.0000000e+00 0.0000000e+00 0.0000000e+00 
0.0000000e+00 0.0000000e+00 0.0000000e+00 
0.0000000e+00 0.0000000e+00 0.0000000e+00 
0.0000000e+00 0.0000000e+00 0.0000000e+00 
0.0000000e+00 0.0000000e+00 0.0000000e+00 
0.0000000e+00 0.0000000e+00 0.0000000e+00 
0.0000000e+00 0.0000000e+00 0.0000000e+00 
0.0000000e+00 0.0000000e+00 0.0000000e+00 
0.0000000e+00 0.0000000e+00 0.0000000e+00 
0.0000000e+00 0.0000000e+00 0.0000000e+00 
0.0000000e+00 0.0000000e+00 0.0000000e+00 
0.0000000e+00 0.0000000e+00 0.0000000e+00 
0.0000000e+00 0.0000000e+00 0.0000000e+00 
0.0000000e+00 0.0000000e+00 0.0000000e+00 
0.0000000e+00 0.0000000e+00 0.0000000e+00 
0.0000000e+00 0.0000000e+00 0.0000000e+00 
0.0000000e+00 0.0000000e+00 0.0000000e+00 
0.0000000e+00 0.0000000e+00 0.0000000e+00 
0.0000000e+00 0.0000000e+00 0.0000000e+00 
0.0000000e+00 0.0000000e+00 0.0000000e+00 
0.0000000e+00 0.0000000e+00 0.0000000e+00 
0.0000000e+00 0.0000000e+00 0.0000000e+00 
0.0000000e+00 0.0000000e+00 0.0000000e+00 
0.0000000e+00 0.0000000e+00 0.0000000e+00 
0.0000000e+00 0.0000000e+00 0.0000000e+00 
0.0000000e+00 0.0000000e+00 0.0000000e+00 
0.0000000e+00 0.0000000e+00 0.0000000e+00 
0.0000000e+00 0.0000000e+00 0.0000000e+00 
0.0000000e+00 0.0000000e+00 0.0000000e+00 
0.0000000e+00 0.0000000e+00 0.0000000e+00 
0.0000000e+00 0.0000000e+00 0.0000000e+00 
0.0000000e+00 0.0000000e+00 0.0000000e+00 
0.0000000e+00 0.0000000e+00 0.0000000e+00 
0.0000000e+00 0.0000000e+00 0.0000000e+00 
0.0000000e+00 0.0000000e+00 0.0000000e+00 
2.5151731e-04 0.0000000e+00 2.3061115e-04 
0.0000000e+00 0.0000000e+00 0.0000000e+00 
2.5151731e-04 0.0000000e+00 2.3061115e-04 
0.0000000e+00 0.0000000e+00 0.0000000e+00 
5.0320585e-04 0.0000000e+00 4.6142069e-04 
0.0000000e+00 0.0000000e+00 0.0000000e+00 
5.0320585e-04 0.0000000e+00 4.6142069e-04 
0.0000000e+00 0.0000000e+00 0.0000000e+00 
7.6363892e-04 0.0000000e+00 7.0030127e-04 
0.0000000e+00 0.0000000e+00 0.0000000e+00 
7.6363892e-04 0.0000000e+00 7.0030127e-04 
0.0000000e+00 0.0000000e+00 0.0000000e+00 
1.0765504e-03 0.0000000e+00 9.8741265e-04 
0.0000000e+00 0.0000000e+00 0.0000000e+00 
1.0765504e-03 0.0000000e+00 9.8741265e-04 
0.0000000e+00 0.0000000e+00 0.0000000e+00 
1.4526151e-03 0.0000000e+00 1.3326101e-03 
0.0000000e+00 0.0000000e+00 0.0000000e+00 
0.0000000e+00 0.0000000e+00 0.0000000e+00 
1.4526151e-03 0.0000000e+00 1.3326101e-03 
0.0000000e+00 0.0000000e+00 0.0000000e+00 
1.4463909e-04 0.0000000e+00 2.9990983e-04 
1.8515792e-03 0.0000000e+00 1.6990079e-03 
1.4463909e-04 0.0000000e+00 2.9990983e-04 
1.8515792e-03 0.0000000e+00 1.6990079e-03 
2.9789111e-04 0.0000000e+00 6.0487792e-04 
2.2511723e-03 0.0000000e+00 2.0661383e-03 
2.9789111e-04 0.0000000e+00 6.0487792e-04 
2.2511723e-03 0.0000000e+00 2.0661383e-03 
4.5941633e-04 0.0000000e+00 9.1417969e-04 
4.5941633e-04 0.0000000e+00 9.1417969e-04 
2.6511926e-03 0.0000000e+00 2.4337659e-03 
6.8723601e-04 0.0000000e+00 1.3324998e-03 
2.6511926e-03 0.0000000e+00 2.4337659e-03 
6.8723601e-04 0.0000000e+00 1.3324998e-03 
3.0516686e-03 0.0000000e+00 2.8019244e-03 
9.2884532e-04 0.0000000e+00 1.7566598e-03 
3.0516686e-03 0.0000000e+00 2.8019244e-03 
9.2884532e-04 0.0000000e+00 1.7566598e-03 
3.4525873e-03 0.0000000e+00 3.1705994e-03 
1.1838418e-03 0.0000000e+00 2.1858677e-03 
3.4525873e-03 0.0000000e+00 3.1705994e-03 
1.1838418e-03 0.0000000e+00 2.1858677e-03 
3.8537586e-03 0.0000000e+00 3.5395686e-03 
1.4517047e-03 0.0000000e+00 2.6190902e-03 
3.8537586e-03 0.0000000e+00 3.5395686e-03 
1.4517047e-03 0.0000000e+00 2.6190902e-03 
1.7319853e-03 0.0000000e+00 3.0554434e-03 
4.2550153e-03 0.0000000e+00 3.9086374e-03 
1.7319853e-03 0.0000000e+00 3.0554434e-03 
4.2550153e-03 0.0000000e+00 3.9086374e-03 
2.0245043e-03 0.0000000e+00 3.4945313e-03 
4.6562631e-03 0.0000000e+00 4.2776962e-03 
2.0245043e-03 0.0000000e+00 3.4945313e-03 
4.6562631e-03 0.0000000e+00 4.2776962e-03 
2.3291369e-03 0.0000000e+00 3.9360053e-03 
5.0574420e-03 0.0000000e+00 4.6466742e-03 
2.3291369e-03 0.0000000e+00 3.9360053e-03 
5.0574420e-03 0.0000000e+00 4.6466742e-03 
2.6455873e-03 0.0000000e+00 4.3792169e-03 
2.6455873e-03 0.0000000e+00 4.3792169e-03 
5.4583988e-03 0.0000000e+00 5.0153933e-03 
5.4583988e-03 0.0000000e+00 5.0153933e-03 
2.9736671e-03 0.0000000e+00 4.8236748e-03 
2.9736671e-03 0.0000000e+00 4.8236748e-03 
5.8588894e-03 0.0000000e+00 5.3835688e-03 
5.8588894e-03 0.0000000e+00 5.3835688e-03 
3.3133689e-03 0.0000000e+00 5.2691568e-03 
3.3133689e-03 0.0000000e+00 5.2691568e-03 
6.2587949e-03 0.0000000e+00 5.7510630e-03 
6.2587949e-03 0.0000000e+00 5.7510630e-03 
3.6647139e-03 0.0000000e+00 5.7154457e-03 
3.6647139e-03 0.0000000e+00 5.7154457e-03 
6.6580304e-03 0.0000000e+00 6.1177767e-03 
6.6580304e-03 0.0000000e+00 6.1177767e-03 
4.0277376e-03 0.0000000e+00 6.1623042e-03 
4.0277376e-03 0.0000000e+00 6.1623042e-03 
7.0564376e-03 0.0000000e+00 6.4835266e-03 
4.4025919e-03 0.0000000e+00 6.6096257e-03 
7.0564376e-03 0.0000000e+00 6.4835266e-03 
4.4025919e-03 0.0000000e+00 6.6096257e-03 
7.4538992e-03 0.0000000e+00 6.8481777e-03 
4.7895594e-03 0.0000000e+00 7.0574429e-03 
7.4538992e-03 0.0000000e+00 6.8481777e-03 
4.7895594e-03 0.0000000e+00 7.0574429e-03 
7.8502971e-03 0.0000000e+00 7.2115930e-03 
5.1890019e-03 0.0000000e+00 7.5058364e-03 
7.8502971e-03 0.0000000e+00 7.2115930e-03 
5.1890019e-03 0.0000000e+00 7.5058364e-03 
5.6013572e-03 0.0000000e+00 7.9549206e-03 
8.2454420e-03 0.0000000e+00 7.5735548e-03 
5.6013572e-03 0.0000000e+00 7.9549206e-03 
8.2454420e-03 0.0000000e+00 7.5735548e-03 
6.0272202e-03 0.0000000e+00 8.4049435e-03 
8.6391105e-03 0.0000000e+00 7.9338067e-03 
6.0272202e-03 0.0000000e+00 8.4049435e-03 
8.6391105e-03 0.0000000e+00 7.9338067e-03 
6.4673709e-03 0.0000000e+00 8.8563009e-03 
6.4673709e-03 0.0000000e+00 8.8563009e-03 
9.0311364e-03 0.0000000e+00 8.2921582e-03 
9.0311364e-03 0.0000000e+00 8.2921582e-03 
6.9226420e-03 0.0000000e+00 9.3093687e-03 
6.9226420e-03 0.0000000e+00 9.3093687e-03 
9.4213891e-03 0.0000000e+00 8.6484622e-03 
9.4213891e-03 0.0000000e+00 8.6484622e-03 
7.3940120e-03 0.0000000e+00 9.7645707e-03 
7.3940120e-03 0.0000000e+00 9.7645707e-03 
9.8097319e-03 0.0000000e+00 9.0025651e-03 
9.8097319e-03 0.0000000e+00 9.0025651e-03 
7.8826561e-03 0.0000000e+00 1.0222439e-02 
7.8826561e-03 0.0000000e+00 1.0222439e-02 
1.0196048e-02 0.0000000e+00 9.3543369e-03 
1.0196048e-02 0.0000000e+00 9.3543369e-03 
8.3899318e-03 0.0000000e+00 1.0683584e-02 
8.3899318e-03 0.0000000e+00 1.0683584e-02 
1.0580186e-02 0.0000000e+00 9.7036074e-03 
1.0580186e-02 0.0000000e+00 9.7036074e-03 
8.9173701e-03 0.0000000e+00 1.1148654e-02 
8.9173701e-03 0.0000000e+00 1.1148654e-02 
1.0961952e-02 0.0000000e+00 1.0050160e-02 
9.4667359e-03 0.0000000e+00 1.1618359e-02 
1.0961952e-02 0.0000000e+00 1.0050160e-02 
9.4667359e-03 0.0000000e+00 1.1618359e-02 
1.0040150e-02 0.0000000e+00 1.2093577e-02 
1.1341163e-02 0.0000000e+00 1.0393796e-02 
1.0040150e-02 0.0000000e+00 1.2093577e-02 
1.1341163e-02 0.0000000e+00 1.0393796e-02 
1.0638584e-02 0.0000000e+00 1.2574536e-02 
1.1717694e-02 0.0000000e+00 1.0734374e-02 
1.0638584e-02 0.0000000e+00 1.2574536e-02 
1.1717694e-02 0.0000000e+00 1.0734374e-02 
1.1235329e-02 0.0000000e+00 1.3046933e-02 
1.1235329e-02 0.0000000e+00 1.3046933e-02 
1.2091432e-02 0.0000000e+00 1.1071779e-02 
1.2091432e-02 0.0000000e+00 1.1071779e-02 
1.1820167e-02 0.0000000e+00 1.3505855e-02 
1.1820167e-02 0.0000000e+00 1.3505855e-02 
1.2462238e-02 0.0000000e+00 1.1405860e-02 
1.2462238e-02 0.0000000e+00 1.1405860e-02 
1.2393653e-02 0.0000000e+00 1.3952083e-02 
1.2393653e-02 0.0000000e+00 1.3952083e-02 
1.2829960e-02 0.0000000e+00 1.1736455e-02 
1.2829960e-02 0.0000000e+00 1.1736455e-02 
1.2956260e-02 0.0000000e+00 1.4386286e-02 
1.2956260e-02 0.0000000e+00 1.4386286e-02 
1.3194458e-02 0.0000000e+00 1.2063416e-02 
1.3194458e-02 0.0000000e+00 1.2063416e-02 
1.3508331e-02 0.0000000e+00 1.4808967e-02 
1.3508331e-02 0.0000000e+00 1.4808967e-02 
1.3555615e-02 0.0000000e+00 1.2386625e-02 
1.3555615e-02 0.0000000e+00 1.2386625e-02 
1.4050103e-02 0.0000000e+00 1.5220502e-02 
1.4050103e-02 0.0000000e+00 1.5220502e-02 
1.3913288e-02 0.0000000e+00 1.2705931e-02 
1.4581823e-02 0.0000000e+00 1.5621270e-02 
1.3913288e-02 0.0000000e+00 1.2705931e-02 
1.4581823e-02 0.0000000e+00 1.5621270e-02 
1.5103778e-02 0.0000000e+00 1.6011676e-02 
1.4267288e-02 0.0000000e+00 1.3021140e-02 
1.5103778e-02 0.0000000e+00 1.6011676e-02 
1.4267288e-02 0.0000000e+00 1.3021140e-02 
1.5616163e-02 0.0000000e+00 1.6392026e-02 
1.4617471e-02 0.0000000e+00 1.3332104e-02 
1.5616163e-02 0.0000000e+00 1.6392026e-02 
1.4617471e-02 0.0000000e+00 1.3332104e-02 
1.6119085e-02 0.0000000e+00 1.6762522e-02 
1.6119085e-02 0.0000000e+00 1.6762522e-02 
1.4963733e-02 0.0000000e+00 1.3638724e-02 
1.4963733e-02 0.0000000e+00 1.3638724e-02 
1.6612686e-02 0.0000000e+00 1.7123397e-02 
1.6612686e-02 0.0000000e+00 1.7123397e-02 
1.5305940e-02 0.0000000e+00 1.3940867e-02 
1.5305940e-02 0.0000000e+00 1.3940867e-02 
1.7097150e-02 0.0000000e+00 1.7474925e-02 
1.7097150e-02 0.0000000e+00 1.7474925e-02 
1.5643922e-02 0.0000000e+00 1.4238365e-02 
1.5643922e-02 0.0000000e+00 1.4238365e-02 
1.7572602e-02 0.0000000e+00 1.7817311e-02 
1.7572602e-02 0.0000000e+00 1.7817311e-02 
1.5977528e-02 0.0000000e+00 1.4531071e-02 
1.5977528e-02 0.0000000e+00 1.4531071e-02 
1.8039079e-02 0.0000000e+00 1.8150672e-02 
1.8039079e-02 0.0000000e+00 1.8150672e-02 
1.6306646e-02 0.0000000e+00 1.4818882e-02 
1.6306646e-02 0.0000000e+00 1.4818882e-02 
1.8496656e-02 0.0000000e+00 1.8475152e-02 
1.8496656e-02 0.0000000e+00 1.8475152e-02 
1.6631175e-02 0.0000000e+00 1.5101709e-02 
1.6631175e-02 0.0000000e+00 1.5101709e-02 
1.8945388e-02 0.0000000e+00 1.8790880e-02 
1.8945388e-02 0.0000000e+00 1.8790880e-02 
1.6950950e-02 0.0000000e+00 1.5379394e-02 
1.6950950e-02 0.0000000e+00 1.5379394e-02 
1.9385260e-02 0.0000000e+00 1.9097913e-02 
1.9385260e-02 0.0000000e+00 1.9097913e-02 
1.7265797e-02 0.0000000e+00 1.5651772e-02 
1.9816298e-02 0.0000000e+00 1.9396343e-02 
1.7265797e-02 0.0000000e+00 1.5651772e-02 
1.9816298e-02 0.0000000e+00 1.9396343e-02 
1.7575651e-02 0.0000000e+00 1.5918800e-02 
2.0238581e-02 0.0000000e+00 1.9686316e-02 
1.7575651e-02 0.0000000e+00 1.5918800e-02 
2.0238581e-02 0.0000000e+00 1.9686316e-02 
2.0652217e-02 0.0000000e+00 1.9967999e-02 
1.7880448e-02 0.0000000e+00 1.6180431e-02 
2.0652217e-02 0.0000000e+00 1.9967999e-02 
1.7880448e-02 0.0000000e+00 1.6180431e-02 
2.1057321e-02 0.0000000e+00 2.0241566e-02 
2.1057321e-02 0.0000000e+00 2.0241566e-02 
1.8180074e-02 0.0000000e+00 1.6436568e-02 
1.8180074e-02 0.0000000e+00 1.6436568e-02 
2.1453895e-02 0.0000000e+00 2.0507077e-02 
2.1453895e-02 0.0000000e+00 2.0507077e-02 
1.8474365e-02 0.0000000e+00 1.6687065e-02 
1.8474365e-02 0.0000000e+00 1.6687065e-02 
2.1841849e-02 0.0000000e+00 2.0764511e-02 
2.1841849e-02 0.0000000e+00 2.0764511e-02 
1.8763040e-02 0.0000000e+00 1.6931655e-02 
1.8763040e-02 0.0000000e+00 1.6931655e-02 
2.2221179e-02 0.0000000e+00 2.1013921e-02 
2.2221179e-02 0.0000000e+00 2.1013921e-02 
1.9045899e-02 0.0000000e+00 1.7170155e-02 
1.9045899e-02 0.0000000e+00 1.7170155e-02 
2.2591885e-02 0.0000000e+00 2.1255367e-02 
2.2591885e-02 0.0000000e+00 2.1255367e-02 
1.9322908e-02 0.0000000e+00 1.7402562e-02 
1.9322908e-02 0.0000000e+00 1.7402562e-02 
2.2953958e-02 0.0000000e+00 2.1488899e-02 
2.2953958e-02 0.0000000e+00 2.1488899e-02 
1.9594001e-02 0.0000000e+00 1.7628839e-02 
1.9594001e-02 0.0000000e+00 1.7628839e-02 
2.3307380e-02 0.0000000e+00 2.1714559e-02 
2.3307380e-02 0.0000000e+00 2.1714559e-02 
1.9859036e-02 0.0000000e+00 1.7848871e-02 
1.9859036e-02 0.0000000e+00 1.7848871e-02 
2.3652108e-02 0.0000000e+00 2.1932365e-02 
2.3652108e-02 0.0000000e+00 2.1932365e-02 
2.0117899e-02 0.0000000e+00 1.8062573e-02 
2.0117899e-02 0.0000000e+00 1.8062573e-02 
2.3988200e-02 0.0000000e+00 2.2142426e-02 
2.3988200e-02 0.0000000e+00 2.2142426e-02 
2.0370510e-02 0.0000000e+00 1.8269897e-02 
2.0370510e-02 0.0000000e+00 1.8269897e-02 
2.4315708e-02 0.0000000e+00 2.2344842e-02 
2.4315708e-02 0.0000000e+00 2.2344842e-02 
2.0616734e-02 0.0000000e+00 1.8470741e-02 
2.0616734e-02 0.0000000e+00 1.8470741e-02 
2.4634617e-02 0.0000000e+00 2.2539653e-02 
2.4634617e-02 0.0000000e+00 2.2539653e-02 
2.0856393e-02 0.0000000e+00 1.8664960e-02 
2.0856393e-02 0.0000000e+00 1.8664960e-02 
2.4944930e-02 0.0000000e+00 2.2726916e-02 
2.4944930e-02 0.0000000e+00 2.2726916e-02 
2.1089322e-02 0.0000000e+00 1.8852425e-02 
2.5246629e-02 0.0000000e+00 2.2906668e-02 
2.1089322e-02 0.0000000e+00 1.8852425e-02 
2.5246629e-02 0.0000000e+00 2.2906668e-02 
2.5539654e-02 0.0000000e+00 2.3078907e-02 
2.1315406e-02 0.0000000e+00 1.9033058e-02 
2.5539654e-02 0.0000000e+00 2.3078907e-02 
2.1315406e-02 0.0000000e+00 1.9033058e-02 
2.5824000e-02 0.0000000e+00 2.3243682e-02 
2.1534596e-02 0.0000000e+00 1.9206850e-02 
2.5824000e-02 0.0000000e+00 2.3243682e-02 
2.1534596e-02 0.0000000e+00 1.9206850e-02 
2.6099697e-02 0.0000000e+00 2.3401069e-02 
2.6099697e-02 0.0000000e+00 2.3401069e-02 
2.1746851e-02 0.0000000e+00 1.9373798e-02 
2.1746851e-02 0.0000000e+00 1.9373798e-02 
2.6366693e-02 0.0000000e+00 2.3551075e-02 
2.6366693e-02 0.0000000e+00 2.3551075e-02 
2.1952034e-02 0.0000000e+00 1.9533807e-02 
2.1952034e-02 0.0000000e+00 1.9533807e-02 
2.6624955e-02 0.0000000e+00 2.3693720e-02 
2.6624955e-02 0.0000000e+00 2.3693720e-02 
2.2150004e-02 0.0000000e+00 1.9686779e-02 
2.2150004e-02 0.0000000e+00 1.9686779e-02 
2.6874578e-02 0.0000000e+00 2.3829134e-02 
2.6874578e-02 0.0000000e+00 2.3829134e-02 
2.2340677e-02 0.0000000e+00 1.9832672e-02 
2.2340677e-02 0.0000000e+00 1.9832672e-02 
2.7115586e-02 0.0000000e+00 2.3957384e-02 
2.7115586e-02 0.0000000e+00 2.3957384e-02 
2.2524042e-02 0.0000000e+00 1.9971517e-02 
2.2524042e-02 0.0000000e+00 1.9971517e-02 
2.7347909e-02 0.0000000e+00 2.4078459e-02 
2.7347909e-02 0.0000000e+00 2.4078459e-02 
2.2700056e-02 0.0000000e+00 2.0103313e-02 
2.2700056e-02 0.0000000e+00 2.0103313e-02 
2.7571541e-02 0.0000000e+00 2.4192402e-02 
2.7571541e-02 0.0000000e+00 2.4192402e-02 
2.2868621e-02 0.0000000e+00 2.0228006e-02 
2.2868621e-02 0.0000000e+00 2.0228006e-02 
2.7786511e-02 0.0000000e+00 2.4299282e-02 
2.7786511e-02 0.0000000e+00 2.4299282e-02 
2.3029605e-02 0.0000000e+00 2.0345513e-02 
2.3029605e-02 0.0000000e+00 2.0345513e-02 
2.7992797e-02 0.0000000e+00 2.4399126e-02 
2.7992797e-02 0.0000000e+00 2.4399126e-02 
2.3182874e-02 0.0000000e+00 2.0455748e-02 
2.3182874e-02 0.0000000e+00 2.0455748e-02 
2.8190354e-02 0.0000000e+00 2.4491943e-02 
2.8190354e-02 0.0000000e+00 2.4491943e-02 
2.3328316e-02 0.0000000e+00 2.0558649e-02 
2.3328316e-02 0.0000000e+00 2.0558649e-02 
2.8379178e-02 0.0000000e+00 2.4577774e-02 
2.8379178e-02 0.0000000e+00 2.4577774e-02 
2.3465782e-02 0.0000000e+00 2.0654121e-02 
2.3465782e-02 0.0000000e+00 2.0654121e-02 
2.8559306e-02 0.0000000e+00 2.4656692e-02 
2.8559306e-02 0.0000000e+00 2.4656692e-02 
2.3595218e-02 0.0000000e+00 2.0742157e-02 
2.3595218e-02 0.0000000e+00 2.0742157e-02 
2.8730796e-02 0.0000000e+00 2.4728787e-02 
2.8730796e-02 0.0000000e+00 2.4728787e-02 
2.3716643e-02 0.0000000e+00 2.0822819e-02 
2.3716643e-02 0.0000000e+00 2.0822819e-02 
2.8892930e-02 0.0000000e+00 2.4793840e-02 
2.8892930e-02 0.0000000e+00 2.4793840e-02 
2.3830292e-02 0.0000000e+00 2.0896273e-02 
2.3830292e-02 0.0000000e+00 2.0896273e-02 
2.9076253e-02 0.0000000e+00 2.4863134e-02 
2.9076253e-02 0.0000000e+00 2.4863134e-02 
2.3955674e-02 0.0000000e+00 2.0974415e-02 
2.3955674e-02 0.0000000e+00 2.0974415e-02 
2.9280133e-02 0.0000000e+00 2.4933810e-02 
2.9280133e-02 0.0000000e+00 2.4933810e-02 
2.4090173e-02 0.0000000e+00 2.1053774e-02 
2.4090173e-02 0.0000000e+00 2.1053774e-02 
2.9501887e-02 0.0000000e+00 2.5001027e-02 
2.9501887e-02 0.0000000e+00 2.5001027e-02 
2.4227505e-02 0.0000000e+00 2.1127954e-02 
2.4227505e-02 0.0000000e+00 2.1127954e-02 
2.9708577e-02 0.0000000e+00 2.5051329e-02 
2.9708577e-02 0.0000000e+00 2.5051329e-02 
2.4340795e-02 0.0000000e+00 2.1180803e-02 
2.4340795e-02 0.0000000e+00 2.1180803e-02 
2.9887368e-02 0.0000000e+00 2.5080615e-02 
2.9887368e-02 0.0000000e+00 2.5080615e-02 
2.4429864e-02 0.0000000e+00 2.1212364e-02 
2.4429864e-02 0.0000000e+00 2.1212364e-02 
3.0038050e-02 0.0000000e+00 2.5088940e-02 
3.0038050e-02 0.0000000e+00 2.5088940e-02 
2.4494449e-02 0.0000000e+00 2.1222609e-02 
2.4494449e-02 0.0000000e+00 2.1222609e-02 
3.0160574e-02 0.0000000e+00 2.5076476e-02 
3.0160574e-02 0.0000000e+00 2.5076476e-02 
2.4534414e-02 0.0000000e+00 2.1211614e-02 
2.4534414e-02 0.0000000e+00 2.1211614e-02 
3.0255043e-02 0.0000000e+00 2.5043499e-02 
3.0255043e-02 0.0000000e+00 2.5043499e-02 
2.4548921e-02 0.0000000e+00 2.1178858e-02 
2.4548921e-02 0.0000000e+00 2.1178858e-02 
3.0321539e-02 0.0000000e+00 2.4990261e-02 
3.0321539e-02 0.0000000e+00 2.4990261e-02 
2.4537170e-02 0.0000000e+00 2.1123866e-02 
2.4537170e-02 0.0000000e+00 2.1123866e-02 
3.0359971e-02 0.0000000e+00 2.4916884e-02 
3.0359971e-02 0.0000000e+00 2.4916884e-02 
2.4498949e-02 0.0000000e+00 2.1046663e-02 
2.4498949e-02 0.0000000e+00 2.1046663e-02 
3.0370032e-02 0.0000000e+00 2.4823335e-02 
3.0370032e-02 0.0000000e+00 2.4823335e-02 
2.4433953e-02 0.0000000e+00 2.0947197e-02 
2.4433953e-02 0.0000000e+00 2.0947197e-02 
3.0351656e-02 0.0000000e+00 2.4709743e-02 