# vtk DataFile Version 4.0
vtk output
ASCII
DATASET UNSTRUCTURED_GRID
POINTS 824 float
-6.4148600e-05 1.0000000e-02 -4.4525366e-03 
-1.0680180e-04 1.0000000e-02 -2.8088474e-03 
3.4513260e-04 1.0000000e-02 -6.0450544e-03 
1.3803532e-03 1.0000000e-02 -7.3230534e-03 
6.5829700e-05 1.0000000e-02 -1.1736922e-03 
2.7142144e-03 1.0000000e-02 -8.2851896e-03 
5.0392030e-04 1.0000000e-02 6.5784910e-04 
4.1780764e-03 1.0000000e-02 -9.0342357e-03 
1.1628646e-03 1.0000000e-02 2.4220088e-03 
5.7070961e-03 1.0000000e-02 -9.6390187e-03 
2.0046218e-03 1.0000000e-02 4.1066196e-03 
7.2731595e-03 1.0000000e-02 -1.0140047e-02 
-6.4148600e-05 0.0000000e+00 -4.4525366e-03 
-1.0680180e-04 0.0000000e+00 -2.8088474e-03 
3.4513260e-04 0.0000000e+00 -6.0450544e-03 
1.3803532e-03 0.0000000e+00 -7.3230534e-03 
6.5829700e-05 0.0000000e+00 -1.1736922e-03 
2.9952540e-03 1.0000000e-02 5.7082181e-03 
8.8622628e-03 1.0000000e-02 -1.0562311e-02 
2.7142144e-03 0.0000000e+00 -8.2851896e-03 
5.0392030e-04 0.0000000e+00 6.5784910e-04 
4.1780764e-03 0.0000000e+00 -9.0342357e-03 
1.1628646e-03 0.0000000e+00 2.4220088e-03 
1.0466628e-02 1.0000000e-02 -1.0922252e-02 
4.1067238e-03 1.0000000e-02 7.2284501e-03 
5.7070961e-03 0.0000000e+00 -9.6390187e-03 
2.0046218e-03 0.0000000e+00 4.1066196e-03 
7.2731595e-03 0.0000000e+00 -1.0140047e-02 
1.2081579e-02 1.0000000e-02 -1.1231240e-02 
5.3166988e-03 1.0000000e-02 8.6715129e-03 
2.9952540e-03 0.0000000e+00 5.7082181e-03 
8.8622628e-03 0.0000000e+00 -1.0562311e-02 
1.3704120e-02 1.0000000e-02 -1.1497501e-02 
1.0466628e-02 0.0000000e+00 -1.0922252e-02 
4.1067238e-03 0.0000000e+00 7.2284501e-03 
6.6076374e-03 1.0000000e-02 1.0042624e-02 
1.5332244e-02 1.0000000e-02 -1.1727173e-02 
1.2081579e-02 0.0000000e+00 -1.1231240e-02 
5.3166988e-03 0.0000000e+00 8.6715129e-03 
7.9658343e-03 1.0000000e-02 1.1347144e-02 
1.3704120e-02 0.0000000e+00 -1.1497501e-02 
1.6964543e-02 1.0000000e-02 -1.1925002e-02 
6.6076374e-03 0.0000000e+00 1.0042624e-02 
9.3804686e-03 1.0000000e-02 1.2590236e-02 
1.5332244e-02 0.0000000e+00 -1.1727173e-02 
1.8600004e-02 1.0000000e-02 -1.2094716e-02 
7.9658343e-03 0.0000000e+00 1.1347144e-02 
1.6964543e-02 0.0000000e+00 -1.1925002e-02 
1.0843002e-02 1.0000000e-02 1.3776601e-02 
2.0237876e-02 1.0000000e-02 -1.2239318e-02 
9.3804686e-03 0.0000000e+00 1.2590236e-02 
1.8600004e-02 0.0000000e+00 -1.2094716e-02 
1.2346566e-02 1.0000000e-02 1.4910517e-02 
2.1877591e-02 1.0000000e-02 -1.2361246e-02 
1.0843002e-02 0.0000000e+00 1.3776601e-02 
2.0237876e-02 0.0000000e+00 -1.2239318e-02 
1.3885623e-02 1.0000000e-02 1.5995768e-02 
2.3518711e-02 1.0000000e-02 -1.2462540e-02 
1.2346566e-02 0.0000000e+00 1.4910517e-02 
2.1877591e-02 0.0000000e+00 -1.2361246e-02 
2.5160890e-02 1.0000000e-02 -1.2544903e-02 
1.5455654e-02 1.0000000e-02 1.7035707e-02 
1.3885623e-02 0.0000000e+00 1.5995768e-02 
2.3518711e-02 0.0000000e+00 -1.2462540e-02 
2.6803852e-02 1.0000000e-02 -1.2609772e-02 
1.7052912e-02 1.0000000e-02 1.8033321e-02 
2.5160890e-02 0.0000000e+00 -1.2544903e-02 
1.5455654e-02 0.0000000e+00 1.7035707e-02 
2.8447376e-02 1.0000000e-02 -1.2658389e-02 
2.6803852e-02 0.0000000e+00 -1.2609772e-02 
1.7052912e-02 0.0000000e+00 1.8033321e-02 
1.8674284e-02 1.0000000e-02 1.8991246e-02 
3.0091279e-02 1.0000000e-02 -1.2691814e-02 
2.8447376e-02 0.0000000e+00 -1.2658389e-02 
1.8674284e-02 0.0000000e+00 1.8991246e-02 
2.0317149e-02 1.0000000e-02 1.9911822e-02 
3.0091279e-02 0.0000000e+00 -1.2691814e-02 
3.1735410e-02 1.0000000e-02 -1.2710971e-02 
2.0317149e-02 0.0000000e+00 1.9911822e-02 
2.1979295e-02 1.0000000e-02 2.0797113e-02 
3.1735410e-02 0.0000000e+00 -1.2710971e-02 
3.3379643e-02 1.0000000e-02 -1.2716676e-02 
2.1979295e-02 0.0000000e+00 2.0797113e-02 
2.3658832e-02 1.0000000e-02 2.1648949e-02 
3.3379643e-02 0.0000000e+00 -1.2716676e-02 
3.5023871e-02 1.0000000e-02 -1.2709629e-02 
2.3658832e-02 0.0000000e+00 2.1648949e-02 
2.5354100e-02 1.0000000e-02 2.2469029e-02 
3.5023871e-02 0.0000000e+00 -1.2709629e-02 
3.6668001e-02 1.0000000e-02 -1.2690457e-02 
2.5354100e-02 0.0000000e+00 2.2469029e-02 
2.7063712e-02 1.0000000e-02 2.3258772e-02 
3.6668001e-02 0.0000000e+00 -1.2690457e-02 
3.8312016e-02 1.0000000e-02 -1.2663038e-02 
2.7063712e-02 0.0000000e+00 2.3258772e-02 
3.8312016e-02 0.0000000e+00 -1.2663038e-02 
2.8786417e-02 1.0000000e-02 2.4019532e-02 
3.9956032e-02 1.0000000e-02 -1.2635752e-02 
2.8786417e-02 0.0000000e+00 2.4019532e-02 
3.9956032e-02 0.0000000e+00 -1.2635752e-02 
3.0521135e-02 1.0000000e-02 2.4752486e-02 
4.1600048e-02 1.0000000e-02 -1.2608467e-02 
3.0521135e-02 0.0000000e+00 2.4752486e-02 
4.1600048e-02 0.0000000e+00 -1.2608467e-02 
3.2266919e-02 1.0000000e-02 2.5458676e-02 
4.3299814e-02 1.0000000e-02 -1.2580255e-02 
3.2266919e-02 0.0000000e+00 2.5458676e-02 
4.3299814e-02 0.0000000e+00 -1.2580255e-02 
3.4022902e-02 1.0000000e-02 2.6139111e-02 
4.5339533e-02 1.0000000e-02 -1.2546402e-02 
3.4022902e-02 0.0000000e+00 2.6139111e-02 
4.5339533e-02 0.0000000e+00 -1.2546402e-02 
3.5788340e-02 1.0000000e-02 2.6794623e-02 
4.7787196e-02 1.0000000e-02 -1.2505778e-02 
3.5788340e-02 0.0000000e+00 2.6794623e-02 
3.7562554e-02 1.0000000e-02 2.7425996e-02 
4.7787196e-02 0.0000000e+00 -1.2505778e-02 
3.7562554e-02 0.0000000e+00 2.7425996e-02 
3.9344928e-02 1.0000000e-02 2.8033950e-02 
5.0379113e-02 1.0000000e-02 -1.2462760e-02 
3.9344928e-02 0.0000000e+00 2.8033950e-02 
5.0379113e-02 0.0000000e+00 -1.2462760e-02 
4.1134916e-02 1.0000000e-02 2.8619109e-02 
5.2971029e-02 1.0000000e-02 -1.2419741e-02 
4.1134916e-02 0.0000000e+00 2.8619109e-02 
5.2971029e-02 0.0000000e+00 -1.2419741e-02 
4.2932026e-02 1.0000000e-02 2.9182016e-02 
4.2932026e-02 0.0000000e+00 2.9182016e-02 
5.5562946e-02 1.0000000e-02 -1.2376723e-02 
4.5339682e-02 1.0000000e-02 2.9899231e-02 
5.5562946e-02 0.0000000e+00 -1.2376723e-02 
4.5339682e-02 0.0000000e+00 2.9899231e-02 
5.8154863e-02 1.0000000e-02 -1.2333705e-02 
4.7758221e-02 1.0000000e-02 3.0578844e-02 
5.8154863e-02 0.0000000e+00 -1.2333705e-02 
4.7758221e-02 0.0000000e+00 3.0578844e-02 
6.0746779e-02 1.0000000e-02 -1.2290686e-02 
5.0186760e-02 1.0000000e-02 3.1221807e-02 
6.0746779e-02 0.0000000e+00 -1.2290686e-02 
5.0186760e-02 0.0000000e+00 3.1221807e-02 
6.3338696e-02 1.0000000e-02 -1.2247668e-02 
5.2624513e-02 1.0000000e-02 3.1828903e-02 
6.3338696e-02 0.0000000e+00 -1.2247668e-02 
5.2624513e-02 0.0000000e+00 3.1828903e-02 
5.5070762e-02 1.0000000e-02 3.2400804e-02 
6.5930613e-02 1.0000000e-02 -1.2204650e-02 
5.5070762e-02 0.0000000e+00 3.2400804e-02 
6.5930613e-02 0.0000000e+00 -1.2204650e-02 
5.7524847e-02 1.0000000e-02 3.2938082e-02 
6.8522529e-02 1.0000000e-02 -1.2161631e-02 
5.7524847e-02 0.0000000e+00 3.2938082e-02 
6.8522529e-02 0.0000000e+00 -1.2161631e-02 
5.9986169e-02 1.0000000e-02 3.3441170e-02 
7.1114446e-02 1.0000000e-02 -1.2118613e-02 
5.9986169e-02 0.0000000e+00 3.3441170e-02 
7.1114446e-02 0.0000000e+00 -1.2118613e-02 
6.2454163e-02 1.0000000e-02 3.3910436e-02 
6.2454163e-02 0.0000000e+00 3.3910436e-02 
7.3706362e-02 1.0000000e-02 -1.2075595e-02 
7.3706362e-02 0.0000000e+00 -1.2075595e-02 
6.4928303e-02 1.0000000e-02 3.4346139e-02 
6.4928303e-02 0.0000000e+00 3.4346139e-02 
7.6298279e-02 1.0000000e-02 -1.2032577e-02 
7.6298279e-02 0.0000000e+00 -1.2032577e-02 
6.7408092e-02 1.0000000e-02 3.4748446e-02 
6.7408092e-02 0.0000000e+00 3.4748446e-02 
7.8890196e-02 1.0000000e-02 -1.1989558e-02 
7.8890196e-02 0.0000000e+00 -1.1989558e-02 
6.9893057e-02 1.0000000e-02 3.5117436e-02 
6.9893057e-02 0.0000000e+00 3.5117436e-02 
8.1482112e-02 1.0000000e-02 -1.1946540e-02 
8.1482112e-02 0.0000000e+00 -1.1946540e-02 
7.2382742e-02 1.0000000e-02 3.5453098e-02 
7.2382742e-02 0.0000000e+00 3.5453098e-02 
8.4074029e-02 1.0000000e-02 -1.1903522e-02 
7.4876707e-02 1.0000000e-02 3.5755332e-02 
8.4074029e-02 0.0000000e+00 -1.1903522e-02 
7.4876707e-02 0.0000000e+00 3.5755332e-02 
8.6665946e-02 1.0000000e-02 -1.1860503e-02 
7.7374516e-02 1.0000000e-02 3.6023948e-02 
8.6665946e-02 0.0000000e+00 -1.1860503e-02 
7.7374516e-02 0.0000000e+00 3.6023948e-02 
8.9257862e-02 1.0000000e-02 -1.1817485e-02 
7.9875738e-02 1.0000000e-02 3.6258665e-02 
8.9257862e-02 0.0000000e+00 -1.1817485e-02 
7.9875738e-02 0.0000000e+00 3.6258665e-02 
8.2379940e-02 1.0000000e-02 3.6459105e-02 
9.1849779e-02 1.0000000e-02 -1.1774467e-02 
8.2379940e-02 0.0000000e+00 3.6459105e-02 
9.1849779e-02 0.0000000e+00 -1.1774467e-02 
8.4886681e-02 1.0000000e-02 3.6624786e-02 
9.4441696e-02 1.0000000e-02 -1.1731448e-02 
8.4886681e-02 0.0000000e+00 3.6624786e-02 
9.4441696e-02 0.0000000e+00 -1.1731448e-02 
8.7395510e-02 1.0000000e-02 3.6755108e-02 
8.7395510e-02 0.0000000e+00 3.6755108e-02 
9.7033612e-02 1.0000000e-02 -1.1688430e-02 
9.7033612e-02 0.0000000e+00 -1.1688430e-02 
8.9905951e-02 1.0000000e-02 3.6849401e-02 
8.9905951e-02 0.0000000e+00 3.6849401e-02 
9.9625529e-02 1.0000000e-02 -1.1645412e-02 
9.9625529e-02 0.0000000e+00 -1.1645412e-02 
9.2417505e-02 1.0000000e-02 3.6906832e-02 
9.2417505e-02 0.0000000e+00 3.6906832e-02 
1.0221745e-01 1.0000000e-02 -1.1602393e-02 
1.0221745e-01 0.0000000e+00 -1.1602393e-02 
9.4929640e-02 1.0000000e-02 3.6926425e-02 
9.4929640e-02 0.0000000e+00 3.6926425e-02 
1.0480936e-01 1.0000000e-02 -1.1559375e-02 
1.0480936e-01 0.0000000e+00 -1.1559375e-02 
9.7441776e-02 1.0000000e-02 3.6907077e-02 
9.7441776e-02 0.0000000e+00 3.6907077e-02 
1.0740128e-01 1.0000000e-02 -1.1516357e-02 
1.0740128e-01 0.0000000e+00 -1.1516357e-02 
9.9953281e-02 1.0000000e-02 3.6847529e-02 
9.9953281e-02 0.0000000e+00 3.6847529e-02 
1.0999320e-01 1.0000000e-02 -1.1473339e-02 
1.0246345e-01 1.0000000e-02 3.6746314e-02 
1.0999320e-01 0.0000000e+00 -1.1473339e-02 
1.0246345e-01 0.0000000e+00 3.6746314e-02 
1.0497150e-01 1.0000000e-02 3.6601738e-02 
1.1258511e-01 1.0000000e-02 -1.1430320e-02 
1.0497150e-01 0.0000000e+00 3.6601738e-02 
1.1258511e-01 0.0000000e+00 -1.1430320e-02 
1.0747666e-01 1.0000000e-02 3.6413638e-02 
1.1517703e-01 1.0000000e-02 -1.1387302e-02 
1.0747666e-01 0.0000000e+00 3.6413638e-02 
[...]
POINT_DATA 824
FIELD FieldData 2
DISPLACEMENT 3 824  float
0.0000000e+00 0.0000000e+00 0.0000000e+00 
0.0000000e+00 0.0000000e+00 0.0000000e+00 
0.0000000e+00 0.0000000e+00 0.0000000e+00 
0.0000000e+00 0.0000000e+00 0.0000000e+00 
0.0000000e+00 0.0000000e+00 0.0000000e+00 
0.0000000e+00 0.0000000e+00 0.0000000e+00 
0.0000000e+00 0.0000000e+00 0.0000000e+00 
0.0000000e+00 0.0000000e+00 0.0000000e+00 
0.0000000e+00 0.0000000e+00 0.0000000e+00 
0.0000000e+00 0.0000000e+00 0.0000000e+00 
0.0000000e+00 0.0000000e+00 0.0000000e+00 
0.0000000e+00 0.0000000e+00 0.0000000e+00 
0.0000000e+00 0.0000000e+00 0.0000000e+00 
0.0000000e+00 0.0000000e+00 0.0000000e+00 
0.0000000e+00 0.0000000e+00 0.0000000e+00 
0.0000000e+00 0.0000000e+00 0.0000000e+00 
0.0000000e+00 0.0000000e+00 0.0000000e+00 
0.0000000e+00 0.0000000e+00 0.0000000e+00 
0.0000000e+00 0.0000000e+00 0.0000000e+00 
0.0000000e+00 0.0000000e+00 0.0000000e+00 
0.0000000e+00 0.0000000e+00 0.0000000e+00 
0.0000000e+00 0.0000000e+00 0.0000000e+00 
0.0000000e+00 0.0000000e+00 0.0000000e+00 
0.0000000e+00 0.0000000e+00 0.0000000e+00 
0.0000000e+00 0.0000000e+00 0.0000000e+00 
0.0000000e+00 0.0000000e+00 0.0000000e+00 
0.0000000e+00 0.0000000e+00 0.0000000e+00 
0.0000000e+00 0.0000000e+00 0.0000000e+00 
0.0000000e+00 0.0000000e+00 0.0000000e+00 
0.0000000e+00 0.0000000e+00 0.0000000e+00 
0.0000000e+00 0.0000000e+00 0.0000000e+00 
0.0000000e+00 0.0000000e+00 0.0000000e+00 
0.0000000e+00 0.0000000e+00 0.0000000e+00 
0.0000000e+00 0.0000000e+00 0.0000000e+00 
0.0000000e+00 0.0000000e+00 0.0000000e+00 
0.0000000e+00 0.0000000e+00 0.0000000e+00 
0.0000000e+00 0.0000000e+00 0.0000000e+00 
0.0000000e+00 0.0000000e+00 0.0000000e+00 
0.0000000e+00 0.0000000e+00 0.0000000e+00 
0.0000000e+00 0.0000000e+00 0.0000000e+00 
0.0000000e+00 0.0000000e+00 0.0000000e+00 
0.0000000e+00 0.0000000e+00 0.0000000e+00 
0.0000000e+00 0.0000000e+00 0.0000000e+00 
0.0000000e+00 0.0000000e+00 0.0000000e+00 
0.0000000e+00 0.0000000e+00 0.0000000e+00 
0.0000000e+00 0.0000000e+00 0.0000000e+00 
0.0000000e+00 0.0000000e+00 0.0000000e+00 
0.0000000e+00 0.0000000e+00 0.0000000e+00 
0.0000000e+00 0.0000000e+00 0.0000000e+00 
0.0000000e+00 0.0000000e+00 0.0000000e+00 
0.0000000e+00 0.0000000e+00 0.0000000e+00 
0.0000000e+00 0.0000000e+00 0.0000000e+00 
0.0000000e+00 0.0000000e+00 0.0000000e+00 
0.0000000e+00 0.0000000e+00 0.0000000e+00 
0.0000000e+00 0.0000000e+00 0.0000000e+00 
0.0000000e+00 0.0000000e+00 0.0000000e+00 
0.0000000e+00 0.0000000e+00 0.0000000e+00 
0.0000000e+00 0.0000000e+00 0.0000000e+00 
0.0000000e+00 0.0000000e+00 0.0000000e+00 
0.0000000e+00 0.0000000e+00 0.0000000e+00 
0.0000000e+00 0.0000000e+00 0.0000000e+00 
0.0000000e+00 0.0000000e+00 0.0000000e+00 
0.0000000e+00 0.0000000e+00 0.0000000e+00 
0.0000000e+00 0.0000000e+00 0.0000000e+00 
0.0000000e+00 0.0000000e+00 0.0000000e+00 
0.0000000e+00 0.0000000e+00 0.0000000e+00 
0.0000000e+00 0.0000000e+00 0.0000000e+00 
0.0000000e+00 0.0000000e+00 0.0000000e+00 
0.0000000e+00 0.0000000e+00 0.0000000e+00 
0.0000000e+00 0.0000000e+00 0.0000000e+00 
0.0000000e+00 0.0000000e+00 0.0000000e+00 
0.0000000e+00 0.0000000e+00 0.0000000e+00 
0.0000000e+00 0.0000000e+00 0.0000000e+00 
0.0000000e+00 0.0000000e+00 0.0000000e+00 
0.0000000e+00 0.0000000e+00 0.0000000e+00 
0.0000000e+00 0.0000000e+00 0.0000000e+00 
0.0000000e+00 0.0000000e+00 0.0000000e+00 
0.0000000e+00 0.0000000e+00 0.0000000e+00 
0.0000000e+00 0.0000000e+00 0.0000000e+00 
0.0000000e+00 0.0000000e+00 0.0000000e+00 
0.0000000e+00 0.0000000e+00 0.0000000e+00 
0.0000000e+00 0.0000000e+00 0.0000000e+00 
0.0000000e+00 0.0000000e+00 0.0000000e+00 
0.0000000e+00 0.0000000e+00 0.0000000e+00 
0.0000000e+00 0.0000000e+00 0.0000000e+00 
0.0000000e+00 0.0000000e+00 0.0000000e+00 
0.0000000e+00 0.0000000e+00 0.0000000e+00 
0.0000000e+00 0.0000000e+00 0.0000000e+00 
0.0000000e+00 0.0000000e+00 0.0000000e+00 
0.0000000e+00 0.0000000e+00 0.0000000e+00 
0.0000000e+00 0.0000000e+00 0.0000000e+00 
0.0000000e+00 0.0000000e+00 0.0000000e+00 
0.0000000e+00 0.0000000e+00 0.0000000e+00 
0.0000000e+00 0.0000000e+00 0.0000000e+00 
0.0000000e+00 0.0000000e+00 0.0000000e+00 
0.0000000e+00 0.0000000e+00 0.0000000e+00 
0.0000000e+00 0.0000000e+00 0.0000000e+00 
-3.3600975e-05 0.0000000e+00 3.7672758e-04 
0.0000000e+00 0.0000000e+00 0.0000000e+00 
-3.3600975e-05 0.0000000e+00 3.7672758e-04 
0.0000000e+00 0.0000000e+00 0.0000000e+00 
-6.6945218e-05 0.0000000e+00 7.5242072e-04 
0.0000000e+00 0.0000000e+00 0.0000000e+00 
-6.6945218e-05 0.0000000e+00 7.5242072e-04 
0.0000000e+00 0.0000000e+00 0.0000000e+00 
-1.0111849e-04 0.0000000e+00 1.1396342e-03 
0.0000000e+00 0.0000000e+00 0.0000000e+00 
-1.0111849e-04 0.0000000e+00 1.1396342e-03 
0.0000000e+00 0.0000000e+00 0.0000000e+00 
-1.4167782e-04 0.0000000e+00 1.6024773e-03 
0.0000000e+00 0.0000000e+00 0.0000000e+00 
-1.4167782e-04 0.0000000e+00 1.6024773e-03 
0.0000000e+00 0.0000000e+00 0.0000000e+00 
-1.8964836e-04 0.0000000e+00 2.1550497e-03 
0.0000000e+00 0.0000000e+00 0.0000000e+00 
0.0000000e+00 0.0000000e+00 0.0000000e+00 
-1.8964836e-04 0.0000000e+00 2.1550497e-03 
0.0000000e+00 0.0000000e+00 0.0000000e+00 
0.0000000e+00 0.0000000e+00 0.0000000e+00 
-2.3952105e-04 0.0000000e+00 2.7364282e-03 
0.0000000e+00 0.0000000e+00 0.0000000e+00 
-2.3952105e-04 0.0000000e+00 2.7364282e-03 
0.0000000e+00 0.0000000e+00 0.0000000e+00 
-2.8833676e-04 0.0000000e+00 3.3134865e-03 
0.0000000e+00 0.0000000e+00 0.0000000e+00 
-2.8833676e-04 0.0000000e+00 3.3134865e-03 
0.0000000e+00 0.0000000e+00 0.0000000e+00 
0.0000000e+00 0.0000000e+00 0.0000000e+00 
-3.3599572e-04 0.0000000e+00 3.8857893e-03 
0.0000000e+00 0.0000000e+00 0.0000000e+00 
-3.3599572e-04 0.0000000e+00 3.8857893e-03 
0.0000000e+00 0.0000000e+00 0.0000000e+00 
-3.8239278e-04 0.0000000e+00 4.4528488e-03 
0.0000000e+00 0.0000000e+00 0.0000000e+00 
-3.8239278e-04 0.0000000e+00 4.4528488e-03 
0.0000000e+00 0.0000000e+00 0.0000000e+00 
-4.2747460e-04 0.0000000e+00 5.0143818e-03 
0.0000000e+00 0.0000000e+00 0.0000000e+00 
-4.2747460e-04 0.0000000e+00 5.0143818e-03 
0.0000000e+00 0.0000000e+00 0.0000000e+00 
-4.7124687e-04 0.0000000e+00 5.5703675e-03 
0.0000000e+00 0.0000000e+00 0.0000000e+00 
-4.7124687e-04 0.0000000e+00 5.5703675e-03 
0.0000000e+00 0.0000000e+00 0.0000000e+00 
0.0000000e+00 0.0000000e+00 0.0000000e+00 
-5.1368512e-04 0.0000000e+00 6.1206516e-03 
0.0000000e+00 0.0000000e+00 0.0000000e+00 
-5.1368512e-04 0.0000000e+00 6.1206516e-03 
0.0000000e+00 0.0000000e+00 0.0000000e+00 
-5.5473974e-04 0.0000000e+00 6.6649481e-03 
0.0000000e+00 0.0000000e+00 0.0000000e+00 
-5.5473974e-04 0.0000000e+00 6.6649481e-03 
0.0000000e+00 0.0000000e+00 0.0000000e+00 
-5.9440200e-04 0.0000000e+00 7.2031456e-03 
0.0000000e+00 0.0000000e+00 0.0000000e+00 
-5.9440200e-04 0.0000000e+00 7.2031456e-03 
0.0000000e+00 0.0000000e+00 0.0000000e+00 
0.0000000e+00 0.0000000e+00 0.0000000e+00 
-6.3269788e-04 0.0000000e+00 7.7352987e-03 
-6.3269788e-04 0.0000000e+00 7.7352987e-03 
0.0000000e+00 0.0000000e+00 0.0000000e+00 
0.0000000e+00 0.0000000e+00 0.0000000e+00 
-6.6962296e-04 0.0000000e+00 8.2613297e-03 
-6.6962296e-04 0.0000000e+00 8.2613297e-03 
0.0000000e+00 0.0000000e+00 0.0000000e+00 
0.0000000e+00 0.0000000e+00 0.0000000e+00 
-7.0513730e-04 0.0000000e+00 8.7809739e-03 
-7.0513730e-04 0.0000000e+00 8.7809739e-03 
0.0000000e+00 0.0000000e+00 0.0000000e+00 
0.0000000e+00 0.0000000e+00 0.0000000e+00 
-7.3923609e-04 0.0000000e+00 9.2941229e-03 
-7.3923609e-04 0.0000000e+00 9.2941229e-03 
0.0000000e+00 0.0000000e+00 0.0000000e+00 
0.0000000e+00 0.0000000e+00 0.0000000e+00 
-7.7195422e-04 0.0000000e+00 9.8008703e-03 
0.0000000e+00 0.0000000e+00 0.0000000e+00 
-7.7195422e-04 0.0000000e+00 9.8008703e-03 
0.0000000e+00 0.0000000e+00 0.0000000e+00 
-8.0329403e-04 0.0000000e+00 1.0301159e-02 
0.0000000e+00 0.0000000e+00 0.0000000e+00 
-8.0329403e-04 0.0000000e+00 1.0301159e-02 
0.0000000e+00 0.0000000e+00 0.0000000e+00 
-8.3323062e-04 0.0000000e+00 1.0794776e-02 
0.0000000e+00 0.0000000e+00 0.0000000e+00 
-8.3323062e-04 0.0000000e+00 1.0794776e-02 
0.0000000e+00 0.0000000e+00 0.0000000e+00 
0.0000000e+00 0.0000000e+00 0.0000000e+00 
-8.6177556e-04 0.0000000e+00 1.1281675e-02 
0.0000000e+00 0.0000000e+00 0.0000000e+00 
-8.6177556e-04 0.0000000e+00 1.1281675e-02 
0.0000000e+00 0.0000000e+00 0.0000000e+00 
-8.8897162e-04 0.0000000e+00 1.1761990e-02 
0.0000000e+00 0.0000000e+00 0.0000000e+00 
-8.8897162e-04 0.0000000e+00 1.1761990e-02 
0.0000000e+00 0.0000000e+00 0.0000000e+00 
0.0000000e+00 0.0000000e+00 0.0000000e+00 
-9.1482888e-04 0.0000000e+00 1.2235701e-02 
-9.1482888e-04 0.0000000e+00 1.2235701e-02 
0.0000000e+00 0.0000000e+00 0.0000000e+00 
0.0000000e+00 0.0000000e+00 0.0000000e+00 
-9.3931959e-04 0.0000000e+00 1.2702565e-02 
-9.3931959e-04 0.0000000e+00 1.2702565e-02 
0.0000000e+00 0.0000000e+00 0.0000000e+00 
0.0000000e+00 0.0000000e+00 0.0000000e+00 
-9.6244760e-04 0.0000000e+00 1.3162491e-02 
-9.6244760e-04 0.0000000e+00 1.3162491e-02 
0.0000000e+00 0.0000000e+00 0.0000000e+00 
0.0000000e+00 0.0000000e+00 0.0000000e+00 
-9.8425309e-04 0.0000000e+00 1.3615606e-02 
-9.8425309e-04 0.0000000e+00 1.3615606e-02 
0.0000000e+00 0.0000000e+00 0.0000000e+00 
0.0000000e+00 0.0000000e+00 0.0000000e+00 
-1.0047449e-03 0.0000000e+00 1.4061878e-02 
-1.0047449e-03 0.0000000e+00 1.4061878e-02 
0.0000000e+00 0.0000000e+00 0.0000000e+00 
0.0000000e+00 0.0000000e+00 0.0000000e+00 
-1.0239058e-03 0.0000000e+00 1.4501096e-02 
0.0000000e+00 0.0000000e+00 0.0000000e+00 
-1.0239058e-03 0.0000000e+00 1.4501096e-02 
0.0000000e+00 0.0000000e+00 0.0000000e+00 
-5.1094912e-05 0.0000000e+00 8.7551474e-04 
-1.0417498e-03 0.0000000e+00 1.4933211e-02 
-5.1094912e-05 0.0000000e+00 8.7551474e-04 
-1.0417498e-03 0.0000000e+00 1.4933211e-02 
-9.7712327e-05 0.0000000e+00 1.7891363e-03 
-1.0583169e-03 0.0000000e+00 1.5358355e-02 
-9.7712327e-05 0.0000000e+00 1.7891363e-03 
-1.0583169e-03 0.0000000e+00 1.5358355e-02 
-1.4157604e-04 0.0000000e+00 2.7088835e-03 
-1.4157604e-04 0.0000000e+00 2.7088835e-03 
-1.0736197e-03 0.0000000e+00 1.5776507e-02 
-1.0736197e-03 0.0000000e+00 1.5776507e-02 
-1.8353432e-04 0.0000000e+00 3.6220267e-03 
-1.8353432e-04 0.0000000e+00 3.6220267e-03 
-1.0876398e-03 0.0000000e+00 1.6187438e-02 
-1.0876398e-03 0.0000000e+00 1.6187438e-02 
-2.2356886e-04 0.0000000e+00 4.5284601e-03 
-2.2356886e-04 0.0000000e+00 4.5284601e-03 
-1.1003834e-03 0.0000000e+00 1.6591054e-02 
-1.1003834e-03 0.0000000e+00 1.6591054e-02 
-2.6156159e-04 0.0000000e+00 5.4277329e-03 
-2.6156159e-04 0.0000000e+00 5.4277329e-03 
-1.1118830e-03 0.0000000e+00 1.6987438e-02 
-1.1118830e-03 0.0000000e+00 1.6987438e-02 
-2.9732245e-04 0.0000000e+00 6.3190807e-03 
-2.9732245e-04 0.0000000e+00 6.3190807e-03 
-1.1221493e-03 0.0000000e+00 1.7376545e-02 
-1.1221493e-03 0.0000000e+00 1.7376545e-02 
-3.3070687e-04 0.0000000e+00 7.2018862e-03 
-3.3070687e-04 0.0000000e+00 7.2018862e-03 
-1.1311766e-03 0.0000000e+00 1.7758202e-02 
-3.6160893e-04 0.0000000e+00 8.0756352e-03 
-1.1311766e-03 0.0000000e+00 1.7758202e-02 
-3.6160893e-04 0.0000000e+00 8.0756352e-03 
-3.8993570e-04 0.0000000e+00 8.9398500e-03 
-1.1389806e-03 0.0000000e+00 1.8132353e-02 
-3.8993570e-04 0.0000000e+00 8.9398500e-03 
-1.1389806e-03 0.0000000e+00 1.8132353e-02 
-4.1562126e-04 0.0000000e+00 9.7941246e-03 
-1.1455929e-03 0.0000000e+00 1.8499071e-02 
-4.1562126e-04 0.0000000e+00 9.7941246e-03 
-1.1455929e-03 0.0000000e+00 1.8499071e-02 
-4.3863144e-04 0.0000000e+00 1.0638154e-02 
-4.3863144e-04 0.0000000e+00 1.0638154e-02 
-1.1510283e-03 0.0000000e+00 1.8858329e-02 
-1.1510283e-03 0.0000000e+00 1.8858329e-02 
-4.5896093e-04 0.0000000e+00 1.1471754e-02 
-4.5896093e-04 0.0000000e+00 1.1471754e-02 
-1.1552834e-03 0.0000000e+00 1.9209950e-02 
-1.1552834e-03 0.0000000e+00 1.9209950e-02 
-4.7658239e-04 0.0000000e+00 1.2294632e-02 
-4.7658239e-04 0.0000000e+00 1.2294632e-02 
-1.1583701e-03 0.0000000e+00 1.9553844e-02 
-1.1583701e-03 0.0000000e+00 1.9553844e-02 
-4.9145031e-04 0.0000000e+00 1.3106403e-02 
-4.9145031e-04 0.0000000e+00 1.3106403e-02 
-1.1603160e-03 0.0000000e+00 1.9890057e-02 
-1.1603160e-03 0.0000000e+00 1.9890057e-02 
-5.0355267e-04 0.0000000e+00 1.3906788e-02 
-5.0355267e-04 0.0000000e+00 1.3906788e-02 
-1.1611361e-03 0.0000000e+00 2.0218547e-02 
-1.1611361e-03 0.0000000e+00 2.0218547e-02 
-5.1289202e-04 0.0000000e+00 1.4695573e-02 
-5.1289202e-04 0.0000000e+00 1.4695573e-02 
-1.1608380e-03 0.0000000e+00 2.0539185e-02 
-1.1608380e-03 0.0000000e+00 2.0539185e-02 
-5.1946093e-04 0.0000000e+00 1.5472484e-02 
-5.1946093e-04 0.0000000e+00 1.5472484e-02 
-1.1594422e-03 0.0000000e+00 2.0851928e-02 
-1.1594422e-03 0.0000000e+00 2.0851928e-02 
-5.2325670e-04 0.0000000e+00 1.6237238e-02 
-5.2325670e-04 0.0000000e+00 1.6237238e-02 
-1.1569765e-03 0.0000000e+00 2.1156817e-02 
-5.2429982e-04 0.0000000e+00 1.6989647e-02 
-1.1569765e-03 0.0000000e+00 2.1156817e-02 
-5.2429982e-04 0.0000000e+00 1.6989647e-02 
-1.1534595e-03 0.0000000e+00 2.1453820e-02 
-5.2262943e-04 0.0000000e+00 1.7729601e-02 
-1.1534595e-03 0.0000000e+00 2.1453820e-02 
-5.2262943e-04 0.0000000e+00 1.7729601e-02 
-5.1826820e-04 0.0000000e+00 1.8456917e-02 
-1.1489010e-03 0.0000000e+00 2.1742813e-02 
-5.1826820e-04 0.0000000e+00 1.8456917e-02 
-1.1489010e-03 0.0000000e+00 2.1742813e-02 
-5.1122743e-04 0.0000000e+00 1.9171316e-02 
-5.1122743e-04 0.0000000e+00 1.9171316e-02 
-1.1433192e-03 0.0000000e+00 2.2023731e-02 
-1.1433192e-03 0.0000000e+00 2.2023731e-02 
-5.0153637e-04 0.0000000e+00 1.9872600e-02 
-5.0153637e-04 0.0000000e+00 1.9872600e-02 
-1.1367403e-03 0.0000000e+00 2.2296592e-02 
-1.1367403e-03 0.0000000e+00 2.2296592e-02 
-4.8922991e-04 0.0000000e+00 2.0560585e-02 
-4.8922991e-04 0.0000000e+00 2.0560585e-02 
-1.1291842e-03 0.0000000e+00 2.2561361e-02 
-1.1291842e-03 0.0000000e+00 2.2561361e-02 
-4.7434076e-04 0.0000000e+00 2.1235062e-02 
-4.7434076e-04 0.0000000e+00 2.1235062e-02 
-1.1206680e-03 0.0000000e+00 2.2817951e-02 
-1.1206680e-03 0.0000000e+00 2.2817951e-02 
-4.5691038e-04 0.0000000e+00 2.1895849e-02 
-4.5691038e-04 0.0000000e+00 2.1895849e-02 
-1.1112159e-03 0.0000000e+00 2.3066334e-02 
-1.1112159e-03 0.0000000e+00 2.3066334e-02 
-4.3698840e-04 0.0000000e+00 2.2542789e-02 
-4.3698840e-04 0.0000000e+00 2.2542789e-02 
-1.1008553e-03 0.0000000e+00 2.3306528e-02 
-1.1008553e-03 0.0000000e+00 2.3306528e-02 
-4.1463147e-04 0.0000000e+00 2.3175770e-02 
-4.1463147e-04 0.0000000e+00 2.3175770e-02 
-1.0896087e-03 0.0000000e+00 2.3538509e-02 
-1.0896087e-03 0.0000000e+00 2.3538509e-02 
-3.8989371e-04 0.0000000e+00 2.3794640e-02 
-3.8989371e-04 0.0000000e+00 2.3794640e-02 
-1.0774949e-03 0.0000000e+00 2.3762199e-02 
-1.0774949e-03 0.0000000e+00 2.3762199e-02 
-3.6282780e-04 0.0000000e+00 2.4399231e-02 
-3.6282780e-04 0.0000000e+00 2.4399231e-02 
-1.0645371e-03 0.0000000e+00 2.3977554e-02 
-1.0645371e-03 0.0000000e+00 2.3977554e-02 
-3.3349068e-04 0.0000000e+00 2.4989380e-02 
-3.3349068e-04 0.0000000e+00 2.4989380e-02 
-1.0507618e-03 0.0000000e+00 2.4184575e-02 
-1.0507618e-03 0.0000000e+00 2.4184575e-02 
-3.0193866e-04 0.0000000e+00 2.5564896e-02 
-3.0193866e-04 0.0000000e+00 2.5564896e-02 
-1.0361930e-03 0.0000000e+00 2.4383239e-02 
-1.0361930e-03 0.0000000e+00 2.4383239e-02 
-2.6823575e-04 0.0000000e+00 2.6125624e-02 
-2.6823575e-04 0.0000000e+00 2.6125624e-02 
-1.0208538e-03 0.0000000e+00 2.4573495e-02 
-2.3245641e-04 0.0000000e+00 2.6671470e-02 
-1.0208538e-03 0.0000000e+00 2.4573495e-02 
-2.3245641e-04 0.0000000e+00 2.6671470e-02 
-1.9467253e-04 0.0000000e+00 2.7202317e-02 
-1.0047711e-03 0.0000000e+00 2.4755323e-02 
-1.9467253e-04 0.0000000e+00 2.7202317e-02 
-1.0047711e-03 0.0000000e+00 2.4755323e-02 
-1.5495568e-04 0.0000000e+00 2.7718012e-02 
-9.8797226e-04 0.0000000e+00 2.4928725e-02 
-1.5495568e-04 0.0000000e+00 2.7718012e-02 
-9.8797226e-04 0.0000000e+00 2.4928725e-02 
-1.1338406e-04 0.0000000e+00 2.8218447e-02 
-1.1338406e-04 0.0000000e+00 2.8218447e-02 
-9.7048308e-04 0.0000000e+00 2.5093691e-02 
-9.7048308e-04 0.0000000e+00 2.5093691e-02 
-7.0040808e-05 0.0000000e+00 2.8703549e-02 
-7.0040808e-05 0.0000000e+00 2.8703549e-02 
-9.5232845e-04 0.0000000e+00 2.5250180e-02 
-9.5232845e-04 0.0000000e+00 2.5250180e-02 
-2.5004214e-05 0.0000000e+00 2.9173190e-02 
-2.5004214e-05 0.0000000e+00 2.9173190e-02 
-9.3353442e-04 0.0000000e+00 2.5398166e-02 
-9.3353442e-04 0.0000000e+00 2.5398166e-02 
2.1650184e-05 0.0000000e+00 2.9627166e-02 
2.1650184e-05 0.0000000e+00 2.9627166e-02 
-9.1412814e-04 0.0000000e+00 2.5537640e-02 
-9.1412814e-04 0.0000000e+00 2.5537640e-02 
6.9835504e-05 0.0000000e+00 3.0065354e-02 
6.9835504e-05 0.0000000e+00 3.0065354e-02 
-8.9413648e-04 0.0000000e+00 2.5668587e-02 
-8.9413648e-04 0.0000000e+00 2.5668587e-02 
1.1945651e-04 0.0000000e+00 3.0487739e-02 
1.1945651e-04 0.0000000e+00 3.0487739e-02 
-8.7358640e-04 0.0000000e+00 2.5790988e-02 
-8.7358640e-04 0.0000000e+00 2.5790988e-02 
1.7042556e-04 0.0000000e+00 3.0894208e-02 
1.7042556e-04 0.0000000e+00 3.0894208e-02 
-8.5250583e-04 0.0000000e+00 2.5904831e-02 
-8.5250583e-04 0.0000000e+00 2.5904831e-02 
2.2265549e-04 0.0000000e+00 3.1284553e-02 
2.2265549e-04 0.0000000e+00 3.1284553e-02 
-8.3092275e-04 0.0000000e+00 2.6010108e-02 
-8.3092275e-04 0.0000000e+00 2.6010108e-02 
2.7604391e-04 0.0000000e+00 3.1658713e-02 
2.7604391e-04 0.0000000e+00 3.1658713e-02 
-8.0886509e-04 0.0000000e+00 2.6106815e-02 
-8.0886509e-04 0.0000000e+00 2.6106815e-02 
3.3048314e-04 0.0000000e+00 3.2016804e-02 
3.3048314e-04 0.0000000e+00 3.2016804e-02 
-7.8636101e-04 0.0000000e+00 2.6194949e-02 
-7.8636101e-04 0.0000000e+00 2.6194949e-02 
3.8587591e-04 0.0000000e+00 3.2358788e-02 
3.8587591e-04 0.0000000e+00 3.2358788e-02 
-7.6343858e-04 0.0000000e+00 2.6274504e-02 
-7.6343858e-04 0.0000000e+00 2.6274504e-02 
4.4212011e-04 0.0000000e+00 3.2684507e-02 
4.4212011e-04 0.0000000e+00 3.2684507e-02 
-7.4012583e-04 0.0000000e+00 2.6345471e-02 
-7.4012583e-04 0.0000000e+00 2.6345471e-02 
4.9909832e-04 0.0000000e+00 3.2994108e-02 
4.9909832e-04 0.0000000e+00 3.2994108e-02 
-7.1645148e-04 0.0000000e+00 2.6407850e-02 
-7.1645148e-04 0.0000000e+00 2.6407850e-02 
5.5641621e-04 0.0000000e+00 3.3286587e-02 
5.5641621e-04 0.0000000e+00 3.3286587e-02 
-6.9237256e-04 0.0000000e+00 2.6461805e-02 
-6.9237256e-04 0.0000000e+00 2.6461805e-02 
6.2587316e-04 0.0000000e+00 3.3617304e-02 
6.2587316e-04 0.0000000e+00 3.3617304e-02 
-6.6307590e-04 0.0000000e+00 2.6515177e-02 
-6.6307590e-04 0.0000000e+00 2.6515177e-02 
7.0998429e-04 0.0000000e+00 3.3985171e-02 
7.0998429e-04 0.0000000e+00 3.3985171e-02 
-6.2740747e-04 0.0000000e+00 2.6562843e-02 
-6.2740747e-04 0.0000000e+00 2.6562843e-02 
8.1166368e-04 0.0000000e+00 3.4385219e-02 
8.1166368e-04 0.0000000e+00 3.4385219e-02 
-5.8442420e-04 0.0000000e+00 2.6596377e-02 
-5.8442420e-04 0.0000000e+00 2.6596377e-02 
9.1922369e-04 0.0000000e+00 3.4757928e-02 
9.1922369e-04 0.0000000e+00 3.4757928e-02 
-5.4090372e-04 0.0000000e+00 2.6604832e-02 
-5.4090372e-04 0.0000000e+00 2.6604832e-02 
1.0266767e-03 0.0000000e+00 3.5080015e-02 
1.0266767e-03 0.0000000e+00 3.5080015e-02 
-4.9698848e-04 0.0000000e+00 2.6588072e-02 
-4.9698848e-04 0.0000000e+00 2.6588072e-02 
1.1334666e-03 0.0000000e+00 3.5351133e-02 
1.1334666e-03 0.0000000e+00 3.5351133e-02 
-4.5281920e-04 0.0000000e+00 2.6546179e-02 
-4.5281920e-04 0.0000000e+00 2.6546179e-02 
1.2390298e-03 0.0000000e+00 3.5571245e-02 
1.2390298e-03 0.0000000e+00 3.5571245e-02 
-4.0853564e-04 0.0000000e+00 2.6479164e-02 
-4.0853564e-04 0.0000000e+00 2.6479164e-02 
1.3428073e-03 0.0000000e+00 3.5740460e-02 
1.3428073e-03 0.0000000e+00 3.5740460e-02 
-3.6428497e-04 0.0000000e+00 2.6386941e-02 
-3.6428497e-04 0.0000000e+00 2.6386941e-02 
1.4442547e-03 0.0000000e+00 3.5859134e-02 
1.4442547e-03 0.0000000e+00 3.5859134e-02 
-3.2020291e-04 0.0000000e+00 2.6269757e-02 
-3.2020291e-04 0.0000000e+00 2.6269757e-02 
1.5428464e-03 0.0000000e+00 3.5927744e-02 
1.5428464e-03 0.0000000e+00 3.5927744e-02 
-2.7642416e-04 0.0000000e+00 2.6127700e-02 