# vtk DataFile Version 4.0
vtk output
ASCII
DATASET UNSTRUCTURED_GRID
POINTS 824 float
-6.4148600e-05 1.0000000e-02 -4.4525366e-03 
-1.0680180e-04 1.0000000e-02 -2.8088474e-03 
3.4513260e-04 1.0000000e-02 -6.0450544e-03 
1.3803532e-03 1.0000000e-02 -7.3230534e-03 
6.5829700e-05 1.0000000e-02 -1.1736922e-03 
2.7142144e-03 1.0000000e-02 -8.2851896e-03 
5.0392030e-04 1.0000000e-02 6.5784910e-04 
4.1780764e-03 1.0000000e-02 -9.0342357e-03 
1.1628646e-03 1.0000000e-02 2.4220088e-03 
5.7070961e-03 1.0000000e-02 -9.6390187e-03 
2.0046218e-03 1.0000000e-02 4.1066196e-03 
7.2731595e-03 1.0000000e-02 -1.0140047e-02 
-6.4148600e-05 0.0000000e+00 -4.4525366e-03 
-1.0680180e-04 0.0000000e+00 -2.8088474e-03 
3.4513260e-04 0.0000000e+00 -6.0450544e-03 
1.3803532e-03 0.0000000e+00 -7.3230534e-03 
6.5829700e-05 0.0000000e+00 -1.1736922e-03 
2.9952540e-03 1.0000000e-02 5.7082181e-03 
8.8622628e-03 1.0000000e-02 -1.0562311e-02 
2.7142144e-03 0.0000000e+00 -8.2851896e-03 
5.0392030e-04 0.0000000e+00 6.5784910e-04 
4.1780764e-03 0.0000000e+00 -9.0342357e-03 
1.1628646e-03 0.0000000e+00 2.4220088e-03 
1.0466628e-02 1.0000000e-02 -1.0922252e-02 
4.1067238e-03 1.0000000e-02 7.2284501e-03 
5.7070961e-03 0.0000000e+00 -9.6390187e-03 
2.0046218e-03 0.0000000e+00 4.1066196e-03 
7.2731595e-03 0.0000000e+00 -1.0140047e-02 
1.2081579e-02 1.0000000e-02 -1.1231240e-02 
5.3166988e-03 1.0000000e-02 8.6715129e-03 
2.9952540e-03 0.0000000e+00 5.7082181e-03 
8.8622628e-03 0.0000000e+00 -1.0562311e-02 
1.3704120e-02 1.0000000e-02 -1.1497501e-02 
1.0466628e-02 0.0000000e+00 -1.0922252e-02 
4.1067238e-03 0.0000000e+00 7.2284501e-03 
6.6076374e-03 1.0000000e-02 1.0042624e-02 
1.5332244e-02 1.0000000e-02 -1.1727173e-02 
1.2081579e-02 0.0000000e+00 -1.1231240e-02 
5.3166988e-03 0.0000000e+00 8.6715129e-03 
7.9658343e-03 1.0000000e-02 1.1347144e-02 
1.3704120e-02 0.0000000e+00 -1.1497501e-02 
1.6964543e-02 1.0000000e-02 -1.1925002e-02 
6.6076374e-03 0.0000000e+00 1.0042624e-02 
9.3804686e-03 1.0000000e-02 1.2590236e-02 
1.5332244e-02 0.0000000e+00 -1.1727173e-02 
1.8600004e-02 1.0000000e-02 -1.2094716e-02 
7.9658343e-03 0.0000000e+00 1.1347144e-02 
1.6964543e-02 0.0000000e+00 -1.1925002e-02 
1.0843002e-02 1.0000000e-02 1.3776601e-02 
2.0237876e-02 1.0000000e-02 -1.2239318e-02 
9.3804686e-03 0.0000000e+00 1.2590236e-02 
1.8600004e-02 0.0000000e+00 -1.2094716e-02 
1.2346566e-02 1.0000000e-02 1.4910517e-02 
2.1877591e-02 1.0000000e-02 -1.2361246e-02 
1.0843002e-02 0.0000000e+00 1.3776601e-02 
2.0237876e-02 0.0000000e+00 -1.2239318e-02 
1.3885623e-02 1.0000000e-02 1.5995768e-02 
2.3518711e-02 1.0000000e-02 -1.2462540e-02 
1.2346566e-02 0.0000000e+00 1.4910517e-02 
2.1877591e-02 0.0000000e+00 -1.2361246e-02 
2.5160890e-02 1.0000000e-02 -1.2544903e-02 
1.5455654e-02 1.0000000e-02 1.7035707e-02 
1.3885623e-02 0.0000000e+00 1.5995768e-02 
2.3518711e-02 0.0000000e+00 -1.2462540e-02 
2.6803852e-02 1.0000000e-02 -1.2609772e-02 
1.7052912e-02 1.0000000e-02 1.8033321e-02 
2.5160890e-02 0.0000000e+00 -1.2544903e-02 
1.5455654e-02 0.0000000e+00 1.7035707e-02 
2.8447376e-02 1.0000000e-02 -1.2658389e-02 
2.6803852e-02 0.0000000e+00 -1.2609772e-02 
1.7052912e-02 0.0000000e+00 1.8033321e-02 
1.8674284e-02 1.0000000e-02 1.8991246e-02 
3.0091279e-02 1.0000000e-02 -1.2691814e-02 
2.8447376e-02 0.0000000e+00 -1.2658389e-02 
1.8674284e-02 0.0000000e+00 1.8991246e-02 
2.0317149e-02 1.0000000e-02 1.9911822e-02 
3.0091279e-02 0.0000000e+00 -1.2691814e-02 
3.1735410e-02 1.0000000e-02 -1.2710971e-02 
2.0317149e-02 0.0000000e+00 1.9911822e-02 
2.1979295e-02 1.0000000e-02 2.0797113e-02 
3.1735410e-02 0.0000000e+00 -1.2710971e-02 
3.3379643e-02 1.0000000e-02 -1.2716676e-02 
2.1979295e-02 0.0000000e+00 2.0797113e-02 
2.3658832e-02 1.0000000e-02 2.1648949e-02 
3.3379643e-02 0.0000000e+00 -1.2716676e-02 
3.5023871e-02 1.0000000e-02 -1.2709629e-02 
2.3658832e-02 0.0000000e+00 2.1648949e-02 
2.5354100e-02 1.0000000e-02 2.2469029e-02 
3.5023871e-02 0.0000000e+00 -1.2709629e-02 
3.6668001e-02 1.0000000e-02 -1.2690457e-02 
2.5354100e-02 0.0000000e+00 2.2469029e-02 
2.7063712e-02 1.0000000e-02 2.3258772e-02 
3.6668001e-02 0.0000000e+00 -1.2690457e-02 
3.8312016e-02 1.0000000e-02 -1.2663038e-02 
2.7063712e-02 0.0000000e+00 2.3258772e-02 
3.8312016e-02 0.0000000e+00 -1.2663038e-02 
2.8786417e-02 1.0000000e-02 2.4019532e-02 
3.9956032e-02 1.0000000e-02 -1.2635752e-02 
2.8786417e-02 0.0000000e+00 2.4019532e-02 
3.9956032e-02 0.0000000e+00 -1.2635752e-02 
3.0521135e-02 1.0000000e-02 2.4752486e-02 
4.1600048e-02 1.0000000e-02 -1.2608467e-02 
3.0521135e-02 0.0000000e+00 2.4752486e-02 
4.1600048e-02 0.0000000e+00 -1.2608467e-02 
3.2266919e-02 1.0000000e-02 2.5458676e-02 
4.3299814e-02 1.0000000e-02 -1.2580255e-02 
3.2266919e-02 0.0000000e+00 2.5458676e-02 
4.3299814e-02 0.0000000e+00 -1.2580255e-02 
3.4022902e-02 1.0000000e-02 2.6139111e-02 
4.5339533e-02 1.0000000e-02 -1.2546402e-02 
3.4022902e-02 0.0000000e+00 2.6139111e-02 
4.5339533e-02 0.0000000e+00 -1.2546402e-02 
3.5788340e-02 1.0000000e-02 2.6794623e-02 
4.7787196e-02 1.0000000e-02 -1.2505778e-02 
3.5788340e-02 0.0000000e+00 2.6794623e-02 
3.7562554e-02 1.0000000e-02 2.7425996e-02 
4.7787196e-02 0.0000000e+00 -1.2505778e-02 
3.7562554e-02 0.0000000e+00 2.7425996e-02 
3.9344928e-02 1.0000000e-02 2.8033950e-02 
5.0379113e-02 1.0000000e-02 -1.2462760e-02 
3.9344928e-02 0.0000000e+00 2.8033950e-02 
5.0379113e-02 0.0000000e+00 -1.2462760e-02 
4.1134916e-02 1.0000000e-02 2.8619109e-02 
5.2971029e-02 1.0000000e-02 -1.2419741e-02 
4.1134916e-02 0.0000000e+00 2.8619109e-02 
5.2971029e-02 0.0000000e+00 -1.2419741e-02 
4.2932026e-02 1.0000000e-02 2.9182016e-02 
4.2932026e-02 0.0000000e+00 2.9182016e-02 
5.5562946e-02 1.0000000e-02 -1.2376723e-02 
4.5339682e-02 1.0000000e-02 2.9899231e-02 
5.5562946e-02 0.0000000e+00 -1.2376723e-02 
4.5339682e-02 0.0000000e+00 2.9899231e-02 
5.8154863e-02 1.0000000e-02 -1.2333705e-02 
4.7758221e-02 1.0000000e-02 3.0578844e-02 
5.8154863e-02 0.0000000e+00 -1.2333705e-02 
4.7758221e-02 0.0000000e+00 3.0578844e-02 
6.0746779e-02 1.0000000e-02 -1.2290686e-02 
5.0186760e-02 1.0000000e-02 3.1221807e-02 
6.0746779e-02 0.0000000e+00 -1.2290686e-02 
5.0186760e-02 0.0000000e+00 3.1221807e-02 
6.3338696e-02 1.0000000e-02 -1.2247668e-02 
5.2624513e-02 1.0000000e-02 3.1828903e-02 
6.3338696e-02 0.0000000e+00 -1.2247668e-02 
5.2624513e-02 0.0000000e+00 3.1828903e-02 
5.5070762e-02 1.0000000e-02 3.2400804e-02 
6.5930613e-02 1.0000000e-02 -1.2204650e-02 
5.5070762e-02 0.0000000e+00 3.2400804e-02 
6.5930613e-02 0.0000000e+00 -1.2204650e-02 
5.7524847e-02 1.0000000e-02 3.2938082e-02 
6.8522529e-02 1.0000000e-02 -1.2161631e-02 
5.7524847e-02 0.0000000e+00 3.2938082e-02 
6.8522529e-02 0.0000000e+00 -1.2161631e-02 
5.9986169e-02 1.0000000e-02 3.3441170e-02 
7.1114446e-02 1.0000000e-02 -1.2118613e-02 
5.9986169e-02 0.0000000e+00 3.3441170e-02 
7.1114446e-02 0.0000000e+00 -1.2118613e-02 
6.2454163e-02 1.0000000e-02 3.3910436e-02 
6.2454163e-02 0.0000000e+00 3.3910436e-02 
7.3706362e-02 1.0000000e-02 -1.2075595e-02 
7.3706362e-02 0.0000000e+00 -1.2075595e-02 
6.4928303e-02 1.0000000e-02 3.4346139e-02 
6.4928303e-02 0.0000000e+00 3.4346139e-02 
7.6298279e-02 1.0000000e-02 -1.2032577e-02 
7.6298279e-02 0.0000000e+00 -1.2032577e-02 
6.7408092e-02 1.0000000e-02 3.4748446e-02 
6.7408092e-02 0.0000000e+00 3.4748446e-02 
7.8890196e-02 1.0000000e-02 -1.1989558e-02 
7.8890196e-02 0.0000000e+00 -1.1989558e-02 
6.9893057e-02 1.0000000e-02 3.5117436e-02 
6.9893057e-02 0.0000000e+00 3.5117436e-02 
8.1482112e-02 1.0000000e-02 -1.1946540e-02 
8.1482112e-02 0.0000000e+00 -1.1946540e-02 
7.2382742e-02 1.0000000e-02 3.5453098e-02 
7.2382742e-02 0.0000000e+00 3.5453098e-02 
8.4074029e-02 1.0000000e-02 -1.1903522e-02 
7.4876707e-02 1.0000000e-02 3.5755332e-02 
8.4074029e-02 0.0000000e+00 -1.1903522e-02 
7.4876707e-02 0.0000000e+00 3.5755332e-02 
8.6665946e-02 1.0000000e-02 -1.1860503e-02 
7.7374516e-02 1.0000000e-02 3.6023948e-02 
8.6665946e-02 0.0000000e+00 -1.1860503e-02 
7.7374516e-02 0.0000000e+00 3.6023948e-02 
8.9257862e-02 1.0000000e-02 -1.1817485e-02 
7.9875738e-02 1.0000000e-02 3.6258665e-02 
8.9257862e-02 0.0000000e+00 -1.1817485e-02 
7.9875738e-02 0.0000000e+00 3.6258665e-02 
8.2379940e-02 1.0000000e-02 3.6459105e-02 
9.1849779e-02 1.0000000e-02 -1.1774467e-02 
8.2379940e-02 0.0000000e+00 3.6459105e-02 
9.1849779e-02 0.0000000e+00 -1.1774467e-02 
8.4886681e-02 1.0000000e-02 3.6624786e-02 
9.4441696e-02 1.0000000e-02 -1.1731448e-02 
8.4886681e-02 0.0000000e+00 3.6624786e-02 
9.4441696e-02 0.0000000e+00 -1.1731448e-02 
8.7395510e-02 1.0000000e-02 3.6755108e-02 
8.7395510e-02 0.0000000e+00 3.6755108e-02 
9.7033612e-02 1.0000000e-02 -1.1688430e-02 
9.7033612e-02 0.0000000e+00 -1.1688430e-02 
8.9905951e-02 1.0000000e-02 3.6849401e-02 
8.9905951e-02 0.0000000e+00 3.6849401e-02 
9.9625529e-02 1.0000000e-02 -1.1645412e-02 
9.9625529e-02 0.0000000e+00 -1.1645412e-02 
9.2417505e-02 1.0000000e-02 3.6906832e-02 
9.2417505e-02 0.0000000e+00 3.6906832e-02 
1.0221745e-01 1.0000000e-02 -1.1602393e-02 
1.0221745e-01 0.0000000e+00 -1.1602393e-02 
9.4929640e-02 1.0000000e-02 3.6926425e-02 
9.4929640e-02 0.0000000e+00 3.6926425e-02 
1.0480936e-01 1.0000000e-02 -1.1559375e-02 
1.0480936e-01 0.0000000e+00 -1.1559375e-02 
9.7441776e-02 1.0000000e-02 3.6907077e-02 
9.7441776e-02 0.0000000e+00 3.6907077e-02 
1.0740128e-01 1.0000000e-02 -1.1516357e-02 
1.0740128e-01 0.0000000e+00 -1.1516357e-02 
9.9953281e-02 1.0000000e-02 3.6847529e-02 
9.9953281e-02 0.0000000e+00 3.6847529e-02 
1.0999320e-01 1.0000000e-02 -1.1473339e-02 
1.0246345e-01 1.0000000e-02 3.6746314e-02 
1.0999320e-01 0.0000000e+00 -1.1473339e-02 
1.0246345e-01 0.0000000e+00 3.6746314e-02 
1.0497150e-01 1.0000000e-02 3.6601738e-02 
1.1258511e-01 1.0000000e-02 -1.1430320e-02 
1.0497150e-01 0.0000000e+00 3.6601738e-02 
1.1258511e-01 0.0000000e+00 -1.1430320e-02 
1.0747666e-01 1.0000000e-02 3.6413638e-02 
1.1517703e-01 1.0000000e-02 -1.1387302e-02 
1.0747666e-01 0.0000000e+00 3.6413638e-02 
[...]
POINT_DATA 824
FIELD FieldData 2
DISPLACEMENT 3 824  float
0.0000000e+00 0.0000000e+00 0.0000000e+00 
0.0000000e+00 0.0000000e+00 0.0000000e+00 
0.0000000e+00 0.0000000e+00 0.0000000e+00 
0.0000000e+00 0.0000000e+00 0.0000000e+00 
0.0000000e+00 0.0000000e+00 0.0000000e+00 
0.0000000e+00 0.0000000e+00 0.0000000e+00 
0.0000000e+00 0.0000000e+00 0.0000000e+00 
0.0000000e+00 0.0000000e+00 0.0000000e+00 
0.0000000e+00 0.0000000e+00 0.0000000e+00 
0.0000000e+00 0.0000000e+00 0.0000000e+00 
0.0000000e+00 0.0000000e+00 0.0000000e+00 
0.0000000e+00 0.0000000e+00 0.0000000e+00 
0.0000000e+00 0.0000000e+00 0.0000000e+00 
0.0000000e+00 0.0000000e+00 0.0000000e+00 
0.0000000e+00 0.0000000e+00 0.0000000e+00 
0.0000000e+00 0.0000000e+00 0.0000000e+00 
0.0000000e+00 0.0000000e+00 0.0000000e+00 
0.0000000e+00 0.0000000e+00 0.0000000e+00 
0.0000000e+00 0.0000000e+00 0.0000000e+00 
0.0000000e+00 0.0000000e+00 0.0000000e+00 
0.0000000e+00 0.0000000e+00 0.0000000e+00 
0.0000000e+00 0.0000000e+00 0.0000000e+00 
0.0000000e+00 0.0000000e+00 0.0000000e+00 
0.0000000e+00 0.0000000e+00 0.0000000e+00 
0.0000000e+00 0.0000000e+00 0.0000000e+00 
0.0000000e+00 0.0000000e+00 0.0000000e+00 
0.0000000e+00 0.0000000e+00 0.0000000e+00 
0.0000000e+00 0.0000000e+00 0.0000000e+00 
0.0000000e+00 0.0000000e+00 0.0000000e+00 
0.0000000e+00 0.0000000e+00 0.0000000e+00 
0.0000000e+00 0.0000000e+00 0.0000000e+00 
0.0000000e+00 0.0000000e+00 0.0000000e+00 
0.0000000e+00 0.0000000e+00 0.0000000e+00 
0.0000000e+00 0.0000000e+00 0.0000000e+00 
0.0000000e+00 0.0000000e+00 0.0000000e+00 
0.0000000e+00 0.0000000e+00 0.0000000e+00 
0.0000000e+00 0.0000000e+00 0.0000000e+00 
0.0000000e+00 0.0000000e+00 0.0000000e+00 
0.0000000e+00 0.0000000e+00 0.0000000e+00 
0.0000000e+00 0.0000000e+00 0.0000000e+00 
0.0000000e+00 0.0000000e+00 0.0000000e+00 
0.0000000e+00 0.0000000e+00 0.0000000e+00 
0.0000000e+00 0.0000000e+00 0.0000000e+00 
0.0000000e+00 0.0000000e+00 0.0000000e+00 
0.0000000e+00 0.0000000e+00 0.0000000e+00 
0.0000000e+00 0.0000000e+00 0.0000000e+00 
0.0000000e+00 0.0000000e+00 0.0000000e+00 
0.0000000e+00 0.0000000e+00 0.0000000e+00 
0.0000000e+00 0.0000000e+00 0.0000000e+00 
0.0000000e+00 0.0000000e+00 0.0000000e+00 
0.0000000e+00 0.0000000e+00 0.0000000e+00 
0.0000000e+00 0.0000000e+00 0.0000000e+00 
0.0000000e+00 0.0000000e+00 0.0000000e+00 
0.0000000e+00 0.0000000e+00 0.0000000e+00 
0.0000000e+00 0.0000000e+00 0.0000000e+00 
0.0000000e+00 0.0000000e+00 0.0000000e+00 
0.0000000e+00 0.0000000e+00 0.0000000e+00 
0.0000000e+00 0.0000000e+00 0.0000000e+00 
0.0000000e+00 0.0000000e+00 0.0000000e+00 
0.0000000e+00 0.0000000e+00 0.0000000e+00 
0.0000000e+00 0.0000000e+00 0.0000000e+00 
0.0000000e+00 0.0000000e+00 0.0000000e+00 
0.0000000e+00 0.0000000e+00 0.0000000e+00 
0.0000000e+00 0.0000000e+00 0.0000000e+00 
0.0000000e+00 0.0000000e+00 0.0000000e+00 
0.0000000e+00 0.0000000e+00 0.0000000e+00 
0.0000000e+00 0.0000000e+00 0.0000000e+00 
0.0000000e+00 0.0000000e+00 0.0000000e+00 
0.0000000e+00 0.0000000e+00 0.0000000e+00 
0.0000000e+00 0.0000000e+00 0.0000000e+00 
0.0000000e+00 0.0000000e+00 0.0000000e+00 
0.0000000e+00 0.0000000e+00 0.0000000e+00 
0.0000000e+00 0.0000000e+00 0.0000000e+00 
0.0000000e+00 0.0000000e+00 0.0000000e+00 
0.0000000e+00 0.0000000e+00 0.0000000e+00 
0.0000000e+00 0.0000000e+00 0.0000000e+00 
0.0000000e+00 0.0000000e+00 0.0000000e+00 
0.0000000e+00 0.0000000e+00 0.0000000e+00 
0.0000000e+00 0.0000000e+00 0.0000000e+00 
0.0000000e+00 0.0000000e+00 0.0000000e+00 
0.0000000e+00 0.0000000e+00 0.0000000e+00 
0.0000000e+00 0.0000000e+00 0.0000000e+00 
0.0000000e+00 0.0000000e+00 0.0000000e+00 
0.0000000e+00 0.0000000e+00 0.0000000e+00 
0.0000000e+00 0.0000000e+00 0.0000000e+00 
0.0000000e+00 0.0000000e+00 0.0000000e+00 
0.0000000e+00 0.0000000e+00 0.0000000e+00 
0.0000000e+00 0.0000000e+00 0.0000000e+00 
0.0000000e+00 0.0000000e+00 0.0000000e+00 
0.0000000e+00 0.0000000e+00 0.0000000e+00 
0.0000000e+00 0.0000000e+00 0.0000000e+00 
0.0000000e+00 0.0000000e+00 0.0000000e+00 
0.0000000e+00 0.0000000e+00 0.0000000e+00 
0.0000000e+00 0.0000000e+00 0.0000000e+00 
0.0000000e+00 0.0000000e+00 0.0000000e+00 
0.0000000e+00 0.0000000e+00 0.0000000e+00 
0.0000000e+00 0.0000000e+00 0.0000000e+00 
-3.4667859e-05 0.0000000e+00 3.8054220e-04 
0.0000000e+00 0.0000000e+00 0.0000000e+00 
-3.4667859e-05 0.0000000e+00 3.8054220e-04 
0.0000000e+00 0.0000000e+00 0.0000000e+00 
-6.9061830e-05 0.0000000e+00 7.5999081e-04 
0.0000000e+00 0.0000000e+00 0.0000000e+00 
-6.9061830e-05 0.0000000e+00 7.5999081e-04 
0.0000000e+00 0.0000000e+00 0.0000000e+00 
-1.0430227e-04 0.0000000e+00 1.1510253e-03 
0.0000000e+00 0.0000000e+00 0.0000000e+00 
-1.0430227e-04 0.0000000e+00 1.1510253e-03 
0.0000000e+00 0.0000000e+00 0.0000000e+00 
-1.4611827e-04 0.0000000e+00 1.6183736e-03 
0.0000000e+00 0.0000000e+00 0.0000000e+00 
-1.4611827e-04 0.0000000e+00 1.6183736e-03 
0.0000000e+00 0.0000000e+00 0.0000000e+00 
-1.9556169e-04 0.0000000e+00 2.1762354e-03 
0.0000000e+00 0.0000000e+00 0.0000000e+00 
0.0000000e+00 0.0000000e+00 0.0000000e+00 
-1.9556169e-04 0.0000000e+00 2.1762354e-03 
0.0000000e+00 0.0000000e+00 0.0000000e+00 
0.0000000e+00 0.0000000e+00 0.0000000e+00 
-2.4695073e-04 0.0000000e+00 2.7630716e-03 
0.0000000e+00 0.0000000e+00 0.0000000e+00 
-2.4695073e-04 0.0000000e+00 2.7630716e-03 
0.0000000e+00 0.0000000e+00 0.0000000e+00 
-2.9723831e-04 0.0000000e+00 3.3454423e-03 
0.0000000e+00 0.0000000e+00 0.0000000e+00 
-2.9723831e-04 0.0000000e+00 3.3454423e-03 
0.0000000e+00 0.0000000e+00 0.0000000e+00 
0.0000000e+00 0.0000000e+00 0.0000000e+00 
-3.4632573e-04 0.0000000e+00 3.9229180e-03 
0.0000000e+00 0.0000000e+00 0.0000000e+00 
-3.4632573e-04 0.0000000e+00 3.9229180e-03 
0.0000000e+00 0.0000000e+00 0.0000000e+00 
-3.9410792e-04 0.0000000e+00 4.4950125e-03 
0.0000000e+00 0.0000000e+00 0.0000000e+00 
-3.9410792e-04 0.0000000e+00 4.4950125e-03 
0.0000000e+00 0.0000000e+00 0.0000000e+00 
-4.4053121e-04 0.0000000e+00 5.0614407e-03 
0.0000000e+00 0.0000000e+00 0.0000000e+00 
-4.4053121e-04 0.0000000e+00 5.0614407e-03 
0.0000000e+00 0.0000000e+00 0.0000000e+00 
-4.8560125e-04 0.0000000e+00 5.6221790e-03 
0.0000000e+00 0.0000000e+00 0.0000000e+00 
-4.8560125e-04 0.0000000e+00 5.6221790e-03 
0.0000000e+00 0.0000000e+00 0.0000000e+00 
0.0000000e+00 0.0000000e+00 0.0000000e+00 
-5.2929341e-04 0.0000000e+00 6.1770710e-03 
0.0000000e+00 0.0000000e+00 0.0000000e+00 
-5.2929341e-04 0.0000000e+00 6.1770710e-03 
0.0000000e+00 0.0000000e+00 0.0000000e+00 
-5.7155799e-04 0.0000000e+00 6.7258292e-03 
0.0000000e+00 0.0000000e+00 0.0000000e+00 
-5.7155799e-04 0.0000000e+00 6.7258292e-03 
0.0000000e+00 0.0000000e+00 0.0000000e+00 
-6.1238654e-04 0.0000000e+00 7.2683406e-03 
0.0000000e+00 0.0000000e+00 0.0000000e+00 
-6.1238654e-04 0.0000000e+00 7.2683406e-03 
0.0000000e+00 0.0000000e+00 0.0000000e+00 
0.0000000e+00 0.0000000e+00 0.0000000e+00 
-6.5180475e-04 0.0000000e+00 7.8046552e-03 
-6.5180475e-04 0.0000000e+00 7.8046552e-03 
0.0000000e+00 0.0000000e+00 0.0000000e+00 
0.0000000e+00 0.0000000e+00 0.0000000e+00 
-6.8980745e-04 0.0000000e+00 8.3346889e-03 
-6.8980745e-04 0.0000000e+00 8.3346889e-03 
0.0000000e+00 0.0000000e+00 0.0000000e+00 
0.0000000e+00 0.0000000e+00 0.0000000e+00 
-7.2635444e-04 0.0000000e+00 8.8581741e-03 
-7.2635444e-04 0.0000000e+00 8.8581741e-03 
0.0000000e+00 0.0000000e+00 0.0000000e+00 
0.0000000e+00 0.0000000e+00 0.0000000e+00 
-7.6144134e-04 0.0000000e+00 9.3750007e-03 
-7.6144134e-04 0.0000000e+00 9.3750007e-03 
0.0000000e+00 0.0000000e+00 0.0000000e+00 
0.0000000e+00 0.0000000e+00 0.0000000e+00 
-7.9510292e-04 0.0000000e+00 9.8852572e-03 
0.0000000e+00 0.0000000e+00 0.0000000e+00 
-7.9510292e-04 0.0000000e+00 9.8852572e-03 
0.0000000e+00 0.0000000e+00 0.0000000e+00 
-8.2734044e-04 0.0000000e+00 1.0388879e-02 
0.0000000e+00 0.0000000e+00 0.0000000e+00 
-8.2734044e-04 0.0000000e+00 1.0388879e-02 
0.0000000e+00 0.0000000e+00 0.0000000e+00 
-8.5812904e-04 0.0000000e+00 1.0885648e-02 
0.0000000e+00 0.0000000e+00 0.0000000e+00 
-8.5812904e-04 0.0000000e+00 1.0885648e-02 
0.0000000e+00 0.0000000e+00 0.0000000e+00 
0.0000000e+00 0.0000000e+00 0.0000000e+00 
-8.8748150e-04 0.0000000e+00 1.1375519e-02 
0.0000000e+00 0.0000000e+00 0.0000000e+00 
-8.8748150e-04 0.0000000e+00 1.1375519e-02 
0.0000000e+00 0.0000000e+00 0.0000000e+00 
-9.1544064e-04 0.0000000e+00 1.1858623e-02 
0.0000000e+00 0.0000000e+00 0.0000000e+00 
-9.1544064e-04 0.0000000e+00 1.1858623e-02 
0.0000000e+00 0.0000000e+00 0.0000000e+00 
0.0000000e+00 0.0000000e+00 0.0000000e+00 
-9.4201547e-04 0.0000000e+00 1.2334929e-02 
-9.4201547e-04 0.0000000e+00 1.2334929e-02 
0.0000000e+00 0.0000000e+00 0.0000000e+00 
0.0000000e+00 0.0000000e+00 0.0000000e+00 
-9.6717842e-04 0.0000000e+00 1.2804191e-02 
-9.6717842e-04 0.0000000e+00 1.2804191e-02 
0.0000000e+00 0.0000000e+00 0.0000000e+00 
0.0000000e+00 0.0000000e+00 0.0000000e+00 
-9.9093462e-04 0.0000000e+00 1.3266320e-02 
-9.9093462e-04 0.0000000e+00 1.3266320e-02 
0.0000000e+00 0.0000000e+00 0.0000000e+00 
0.0000000e+00 0.0000000e+00 0.0000000e+00 
-1.0133246e-03 0.0000000e+00 1.3721436e-02 
-1.0133246e-03 0.0000000e+00 1.3721436e-02 
0.0000000e+00 0.0000000e+00 0.0000000e+00 
0.0000000e+00 0.0000000e+00 0.0000000e+00 
-1.0343567e-03 0.0000000e+00 1.4169502e-02 
-1.0343567e-03 0.0000000e+00 1.4169502e-02 
0.0000000e+00 0.0000000e+00 0.0000000e+00 
0.0000000e+00 0.0000000e+00 0.0000000e+00 
-1.0540144e-03 0.0000000e+00 1.4610305e-02 
0.0000000e+00 0.0000000e+00 0.0000000e+00 
-1.0540144e-03 0.0000000e+00 1.4610305e-02 
0.0000000e+00 0.0000000e+00 0.0000000e+00 
-4.9630446e-05 0.0000000e+00 8.7034561e-04 
-1.0723130e-03 0.0000000e+00 1.5043796e-02 
-4.9630446e-05 0.0000000e+00 8.7034561e-04 
-1.0723130e-03 0.0000000e+00 1.5043796e-02 
-9.4857609e-05 0.0000000e+00 1.7790143e-03 
-1.0892935e-03 0.0000000e+00 1.5470106e-02 
-9.4857609e-05 0.0000000e+00 1.7790143e-03 
-1.0892935e-03 0.0000000e+00 1.5470106e-02 
-1.3740301e-04 0.0000000e+00 2.6940154e-03 
-1.3740301e-04 0.0000000e+00 2.6940154e-03 
-1.1049688e-03 0.0000000e+00 1.5889211e-02 
-1.1049688e-03 0.0000000e+00 1.5889211e-02 
-1.7811318e-04 0.0000000e+00 3.6026145e-03 
-1.7811318e-04 0.0000000e+00 3.6026145e-03 
-1.1193215e-03 0.0000000e+00 1.6300877e-02 
-1.1193215e-03 0.0000000e+00 1.6300877e-02 
-2.1696884e-04 0.0000000e+00 4.5047044e-03 
-2.1696884e-04 0.0000000e+00 4.5047044e-03 
-1.1323586e-03 0.0000000e+00 1.6705013e-02 
-1.1323586e-03 0.0000000e+00 1.6705013e-02 
-2.5385093e-04 0.0000000e+00 5.3998316e-03 
-2.5385093e-04 0.0000000e+00 5.3998316e-03 
-1.1441140e-03 0.0000000e+00 1.7101699e-02 
-1.1441140e-03 0.0000000e+00 1.7101699e-02 
-2.8856813e-04 0.0000000e+00 6.2872274e-03 
-2.8856813e-04 0.0000000e+00 6.2872274e-03 
-1.1545994e-03 0.0000000e+00 1.7490892e-02 
-1.1545994e-03 0.0000000e+00 1.7490892e-02 
-3.2097383e-04 0.0000000e+00 7.1662685e-03 
-3.2097383e-04 0.0000000e+00 7.1662685e-03 
-1.1638104e-03 0.0000000e+00 1.7872418e-02 
-3.5095984e-04 0.0000000e+00 8.0364349e-03 
-1.1638104e-03 0.0000000e+00 1.7872418e-02 
-3.5095984e-04 0.0000000e+00 8.0364349e-03 
-3.7843216e-04 0.0000000e+00 8.8972471e-03 
-1.1717642e-03 0.0000000e+00 1.8246221e-02 
-3.7843216e-04 0.0000000e+00 8.8972471e-03 
-1.1717642e-03 0.0000000e+00 1.8246221e-02 
-4.0332463e-04 0.0000000e+00 9.7483023e-03 
-1.1784934e-03 0.0000000e+00 1.8612374e-02 
-4.0332463e-04 0.0000000e+00 9.7483023e-03 
-1.1784934e-03 0.0000000e+00 1.8612374e-02 
-4.2560192e-04 0.0000000e+00 1.0589296e-02 
-4.2560192e-04 0.0000000e+00 1.0589296e-02 
-1.1840147e-03 0.0000000e+00 1.8970854e-02 
-1.1840147e-03 0.0000000e+00 1.8970854e-02 
-4.4525627e-04 0.0000000e+00 1.1420039e-02 
-4.4525627e-04 0.0000000e+00 1.1420039e-02 
-1.1883263e-03 0.0000000e+00 1.9321487e-02 
-1.1883263e-03 0.0000000e+00 1.9321487e-02 
-4.6225848e-04 0.0000000e+00 1.2240236e-02 
-4.6225848e-04 0.0000000e+00 1.2240236e-02 
-1.1914414e-03 0.0000000e+00 1.9664182e-02 
-1.1914414e-03 0.0000000e+00 1.9664182e-02 
-4.7656239e-04 0.0000000e+00 1.3049506e-02 
-4.7656239e-04 0.0000000e+00 1.3049506e-02 
-1.1933893e-03 0.0000000e+00 1.9998989e-02 
-1.1933893e-03 0.0000000e+00 1.9998989e-02 
-4.8815464e-04 0.0000000e+00 1.3847568e-02 
-4.8815464e-04 0.0000000e+00 1.3847568e-02 
-1.1941870e-03 0.0000000e+00 2.0325870e-02 
-1.1941870e-03 0.0000000e+00 2.0325870e-02 
-4.9703530e-04 0.0000000e+00 1.4634204e-02 
-4.9703530e-04 0.0000000e+00 1.4634204e-02 
-1.1938439e-03 0.0000000e+00 2.0644699e-02 
-1.1938439e-03 0.0000000e+00 2.0644699e-02 
-5.0319467e-04 0.0000000e+00 1.5409138e-02 
-5.0319467e-04 0.0000000e+00 1.5409138e-02 
-1.1923815e-03 0.0000000e+00 2.0955435e-02 
-1.1923815e-03 0.0000000e+00 2.0955435e-02 
-5.0662905e-04 0.0000000e+00 1.6172088e-02 
-5.0662905e-04 0.0000000e+00 1.6172088e-02 
-1.1898293e-03 0.0000000e+00 2.1258120e-02 
-5.0735784e-04 0.0000000e+00 1.6922870e-02 
-1.1898293e-03 0.0000000e+00 2.1258120e-02 
-5.0735784e-04 0.0000000e+00 1.6922870e-02 
-1.1862079e-03 0.0000000e+00 2.1552727e-02 
-5.0541732e-04 0.0000000e+00 1.7661366e-02 
-1.1862079e-03 0.0000000e+00 2.1552727e-02 
-5.0541732e-04 0.0000000e+00 1.7661366e-02 
-5.0082732e-04 0.0000000e+00 1.8387387e-02 
-1.1815288e-03 0.0000000e+00 2.1839140e-02 
-5.0082732e-04 0.0000000e+00 1.8387387e-02 
-1.1815288e-03 0.0000000e+00 2.1839140e-02 
-4.9359779e-04 0.0000000e+00 1.9100657e-02 
-4.9359779e-04 0.0000000e+00 1.9100657e-02 
-1.1758118e-03 0.0000000e+00 2.2117294e-02 
-1.1758118e-03 0.0000000e+00 2.2117294e-02 
-4.8375633e-04 0.0000000e+00 1.9800977e-02 
-4.8375633e-04 0.0000000e+00 1.9800977e-02 
-1.1690845e-03 0.0000000e+00 2.2387210e-02 
-1.1690845e-03 0.0000000e+00 2.2387210e-02 
-4.7133502e-04 0.0000000e+00 2.0488157e-02 
-4.7133502e-04 0.0000000e+00 2.0488157e-02 
-1.1613682e-03 0.0000000e+00 2.2648855e-02 
-1.1613682e-03 0.0000000e+00 2.2648855e-02 
-4.5636420e-04 0.0000000e+00 2.1161984e-02 
-4.5636420e-04 0.0000000e+00 2.1161984e-02 
-1.1526817e-03 0.0000000e+00 2.2902148e-02 
-1.1526817e-03 0.0000000e+00 2.2902148e-02 
-4.3888415e-04 0.0000000e+00 2.1822277e-02 
-4.3888415e-04 0.0000000e+00 2.1822277e-02 
-1.1430508e-03 0.0000000e+00 2.3147062e-02 
-1.1430508e-03 0.0000000e+00 2.3147062e-02 
-4.1894302e-04 0.0000000e+00 2.2468882e-02 
-4.1894302e-04 0.0000000e+00 2.2468882e-02 
-1.1325038e-03 0.0000000e+00 2.3383619e-02 
-1.1325038e-03 0.0000000e+00 2.3383619e-02 
-3.9659442e-04 0.0000000e+00 2.3101678e-02 
-3.9659442e-04 0.0000000e+00 2.3101678e-02 
-1.1210646e-03 0.0000000e+00 2.3611795e-02 
-1.1210646e-03 0.0000000e+00 2.3611795e-02 
-3.7188969e-04 0.0000000e+00 2.3720505e-02 
-3.7188969e-04 0.0000000e+00 2.3720505e-02 
-1.1087537e-03 0.0000000e+00 2.3831516e-02 
-1.1087537e-03 0.0000000e+00 2.3831516e-02 
-3.4488011e-04 0.0000000e+00 2.4325198e-02 
-3.4488011e-04 0.0000000e+00 2.4325198e-02 
-1.0955955e-03 0.0000000e+00 2.4042744e-02 
-1.0955955e-03 0.0000000e+00 2.4042744e-02 
-3.1562072e-04 0.0000000e+00 2.4915592e-02 
-3.1562072e-04 0.0000000e+00 2.4915592e-02 
-1.0816176e-03 0.0000000e+00 2.4245478e-02 
-1.0816176e-03 0.0000000e+00 2.4245478e-02 
-2.8416495e-04 0.0000000e+00 2.5491486e-02 
-2.8416495e-04 0.0000000e+00 2.5491486e-02 
-1.0668450e-03 0.0000000e+00 2.4439697e-02 
-1.0668450e-03 0.0000000e+00 2.4439697e-02 
-2.5057468e-04 0.0000000e+00 2.6052719e-02 
-2.5057468e-04 0.0000000e+00 2.6052719e-02 
-1.0513027e-03 0.0000000e+00 2.4625357e-02 
-2.1492292e-04 0.0000000e+00 2.6599200e-02 
-1.0513027e-03 0.0000000e+00 2.4625357e-02 
-2.1492292e-04 0.0000000e+00 2.6599200e-02 
-1.7727945e-04 0.0000000e+00 2.7130805e-02 
-1.0350186e-03 0.0000000e+00 2.4802441e-02 
-1.7727945e-04 0.0000000e+00 2.7130805e-02 
-1.0350186e-03 0.0000000e+00 2.4802441e-02 
-1.3771318e-04 0.0000000e+00 2.7647374e-02 
-1.0180213e-03 0.0000000e+00 2.4970953e-02 
-1.3771318e-04 0.0000000e+00 2.7647374e-02 
-1.0180213e-03 0.0000000e+00 2.4970953e-02 
-9.6300535e-05 0.0000000e+00 2.8148791e-02 
-9.6300535e-05 0.0000000e+00 2.8148791e-02 
-1.0003376e-03 0.0000000e+00 2.5130886e-02 
-1.0003376e-03 0.0000000e+00 2.5130886e-02 
-5.3123457e-05 0.0000000e+00 2.8634985e-02 
-5.3123457e-05 0.0000000e+00 2.8634985e-02 
-9.8199382e-04 0.0000000e+00 2.5282203e-02 
-9.8199382e-04 0.0000000e+00 2.5282203e-02 
-8.2582947e-06 0.0000000e+00 2.9105825e-02 
-8.2582947e-06 0.0000000e+00 2.9105825e-02 
-9.6301729e-04 0.0000000e+00 2.5424887e-02 
-9.6301729e-04 0.0000000e+00 2.5424887e-02 
3.8221589e-05 0.0000000e+00 2.9561096e-02 
3.8221589e-05 0.0000000e+00 2.9561096e-02 
-9.4343610e-04 0.0000000e+00 2.5558930e-02 
-9.4343610e-04 0.0000000e+00 2.5558930e-02 
8.6230624e-05 0.0000000e+00 3.0000671e-02 
8.6230624e-05 0.0000000e+00 3.0000671e-02 
-9.2327824e-04 0.0000000e+00 2.5684319e-02 
-9.2327824e-04 0.0000000e+00 2.5684319e-02 
1.3567454e-04 0.0000000e+00 3.0424539e-02 
1.3567454e-04 0.0000000e+00 3.0424539e-02 
-9.0257185e-04 0.0000000e+00 2.5801042e-02 
-9.0257185e-04 0.0000000e+00 2.5801042e-02 
1.8646731e-04 0.0000000e+00 3.0832583e-02 
1.8646731e-04 0.0000000e+00 3.0832583e-02 
-8.8134596e-04 0.0000000e+00 2.5909096e-02 
-8.8134596e-04 0.0000000e+00 2.5909096e-02 
2.3852360e-04 0.0000000e+00 3.1224583e-02 
2.3852360e-04 0.0000000e+00 3.1224583e-02 
-8.5962952e-04 0.0000000e+00 2.6008475e-02 
-8.5962952e-04 0.0000000e+00 2.6008475e-02 
2.9174214e-04 0.0000000e+00 3.1600476e-02 
2.9174214e-04 0.0000000e+00 3.1600476e-02 
-8.3745151e-04 0.0000000e+00 2.6099183e-02 
-8.3745151e-04 0.0000000e+00 2.6099183e-02 
3.4601609e-04 0.0000000e+00 3.1960381e-02 
3.4601609e-04 0.0000000e+00 3.1960381e-02 
-8.1484103e-04 0.0000000e+00 2.6181223e-02 
-8.1484103e-04 0.0000000e+00 2.6181223e-02 
4.0124950e-04 0.0000000e+00 3.2304253e-02 
4.0124950e-04 0.0000000e+00 3.2304253e-02 
-7.9182697e-04 0.0000000e+00 2.6254597e-02 
-7.9182697e-04 0.0000000e+00 2.6254597e-02 
4.5734171e-04 0.0000000e+00 3.2631925e-02 
4.5734171e-04 0.0000000e+00 3.2631925e-02 
-7.6843812e-04 0.0000000e+00 2.6319300e-02 
-7.6843812e-04 0.0000000e+00 2.6319300e-02 
5.1417609e-04 0.0000000e+00 3.2943538e-02 
5.1417609e-04 0.0000000e+00 3.2943538e-02 
-7.4470413e-04 0.0000000e+00 2.6375338e-02 
-7.4470413e-04 0.0000000e+00 2.6375338e-02 
5.7135954e-04 0.0000000e+00 3.3238075e-02 
5.7135954e-04 0.0000000e+00 3.3238075e-02 
-7.2058267e-04 0.0000000e+00 2.6422872e-02 
-7.2058267e-04 0.0000000e+00 2.6422872e-02 
6.4066788e-04 0.0000000e+00 3.3571320e-02 
6.4066788e-04 0.0000000e+00 3.3571320e-02 
-6.9125855e-04 0.0000000e+00 2.6468462e-02 
-6.9125855e-04 0.0000000e+00 2.6468462e-02 
7.2462013e-04 0.0000000e+00 3.3942283e-02 
7.2462013e-04 0.0000000e+00 3.3942283e-02 
-6.5559243e-04 0.0000000e+00 2.6506698e-02 
-6.5559243e-04 0.0000000e+00 2.6506698e-02 
8.2613759e-04 0.0000000e+00 3.4346139e-02 
8.2613759e-04 0.0000000e+00 3.4346139e-02 
-6.1266335e-04 0.0000000e+00 2.6528943e-02 
-6.1266335e-04 0.0000000e+00 2.6528943e-02 
9.3356332e-04 0.0000000e+00 3.4722966e-02 
9.3356332e-04 0.0000000e+00 3.4722966e-02 
-5.6925415e-04 0.0000000e+00 2.6526052e-02 
-5.6925415e-04 0.0000000e+00 2.6526052e-02 
1.0409212e-03 0.0000000e+00 3.5049221e-02 
1.0409212e-03 0.0000000e+00 3.5049221e-02 
-5.2550856e-04 0.0000000e+00 2.6497907e-02 
-5.2550856e-04 0.0000000e+00 2.6497907e-02 
1.1476555e-03 0.0000000e+00 3.5324524e-02 
1.1476555e-03 0.0000000e+00 3.5324524e-02 
-4.8156740e-04 0.0000000e+00 2.6444643e-02 
-4.8156740e-04 0.0000000e+00 2.6444643e-02 
1.2532030e-03 0.0000000e+00 3.5548839e-02 
1.2532030e-03 0.0000000e+00 3.5548839e-02 
-4.3756993e-04 0.0000000e+00 2.6366317e-02 
-4.3756993e-04 0.0000000e+00 2.6366317e-02 
1.3570040e-03 0.0000000e+00 3.5722256e-02 
1.3570040e-03 0.0000000e+00 3.5722256e-02 
-3.9366265e-04 0.0000000e+00 2.6262879e-02 
-3.9366265e-04 0.0000000e+00 2.6262879e-02 
1.4585116e-03 0.0000000e+00 3.5845091e-02 
1.4585116e-03 0.0000000e+00 3.5845091e-02 
-3.4997878e-04 0.0000000e+00 2.6134631e-02 
-3.4997878e-04 0.0000000e+00 2.6134631e-02 
1.5571975e-03 0.0000000e+00 3.5917797e-02 
1.5571975e-03 0.0000000e+00 3.5917797e-02 
-3.0665006e-04 0.0000000e+00 2.5981710e-02 