# vtk DataFile Version 4.0
vtk output
ASCII
DATASET UNSTRUCTURED_GRID
POINTS 824 float
-6.4148600e-05 1.0000000e-02 -4.4525366e-03 
-1.0680180e-04 1.0000000e-02 -2.8088474e-03 
3.4513260e-04 1.0000000e-02 -6.0450544e-03 
1.3803532e-03 1.0000000e-02 -7.3230534e-03 
6.5829700e-05 1.0000000e-02 -1.1736922e-03 
2.7142144e-03 1.0000000e-02 -8.2851896e-03 
5.0392030e-04 1.0000000e-02 6.5784910e-04 
4.1780764e-03 1.0000000e-02 -9.0342357e-03 
1.1628646e-03 1.0000000e-02 2.4220088e-03 
5.7070961e-03 1.0000000e-02 -9.6390187e-03 
2.0046218e-03 1.0000000e-02 4.1066196e-03 
7.2731595e-03 1.0000000e-02 -1.0140047e-02 
-6.4148600e-05 0.0000000e+00 -4.4525366e-03 
-1.0680180e-04 0.0000000e+00 -2.8088474e-03 
3.4513260e-04 0.0000000e+00 -6.0450544e-03 
1.3803532e-03 0.0000000e+00 -7.3230534e-03 
6.5829700e-05 0.0000000e+00 -1.1736922e-03 
2.9952540e-03 1.0000000e-02 5.7082181e-03 
8.8622628e-03 1.0000000e-02 -1.0562311e-02 
2.7142144e-03 0.0000000e+00 -8.2851896e-03 
5.0392030e-04 0.0000000e+00 6.5784910e-04 
4.1780764e-03 0.0000000e+00 -9.0342357e-03 
1.1628646e-03 0.0000000e+00 2.4220088e-03 
1.0466628e-02 1.0000000e-02 -1.0922252e-02 
4.1067238e-03 1.0000000e-02 7.2284501e-03 
5.7070961e-03 0.0000000e+00 -9.6390187e-03 
2.0046218e-03 0.0000000e+00 4.1066196e-03 
7.2731595e-03 0.0000000e+00 -1.0140047e-02 
1.2081579e-02 1.0000000e-02 -1.1231240e-02 
5.3166988e-03 1.0000000e-02 8.6715129e-03 
2.9952540e-03 0.0000000e+00 5.7082181e-03 
8.8622628e-03 0.0000000e+00 -1.0562311e-02 
1.3704120e-02 1.0000000e-02 -1.1497501e-02 
1.0466628e-02 0.0000000e+00 -1.0922252e-02 
4.1067238e-03 0.0000000e+00 7.2284501e-03 
6.6076374e-03 1.0000000e-02 1.0042624e-02 
1.5332244e-02 1.0000000e-02 -1.1727173e-02 
1.2081579e-02 0.0000000e+00 -1.1231240e-02 
5.3166988e-03 0.0000000e+00 8.6715129e-03 
7.9658343e-03 1.0000000e-02 1.1347144e-02 
1.3704120e-02 0.0000000e+00 -1.1497501e-02 
1.6964543e-02 1.0000000e-02 -1.1925002e-02 
6.6076374e-03 0.0000000e+00 1.0042624e-02 
9.3804686e-03 1.0000000e-02 1.2590236e-02 
1.5332244e-02 0.0000000e+00 -1.1727173e-02 
1.8600004e-02 1.0000000e-02 -1.2094716e-02 
7.9658343e-03 0.0000000e+00 1.1347144e-02 
1.6964543e-02 0.0000000e+00 -1.1925002e-02 
1.0843002e-02 1.0000000e-02 1.3776601e-02 
2.0237876e-02 1.0000000e-02 -1.2239318e-02 
9.3804686e-03 0.0000000e+00 1.2590236e-02 
1.8600004e-02 0.0000000e+00 -1.2094716e-02 
1.2346566e-02 1.0000000e-02 1.4910517e-02 
2.1877591e-02 1.0000000e-02 -1.2361246e-02 
1.0843002e-02 0.0000000e+00 1.3776601e-02 
2.0237876e-02 0.0000000e+00 -1.2239318e-02 
1.3885623e-02 1.0000000e-02 1.5995768e-02 
2.3518711e-02 1.0000000e-02 -1.2462540e-02 
1.2346566e-02 0.0000000e+00 1.4910517e-02 
2.1877591e-02 0.0000000e+00 -1.2361246e-02 
2.5160890e-02 1.0000000e-02 -1.2544903e-02 
1.5455654e-02 1.0000000e-02 1.7035707e-02 
1.3885623e-02 0.0000000e+00 1.5995768e-02 
2.3518711e-02 0.0000000e+00 -1.2462540e-02 
2.6803852e-02 1.0000000e-02 -1.2609772e-02 
1.7052912e-02 1.0000000e-02 1.8033321e-02 
2.5160890e-02 0.0000000e+00 -1.2544903e-02 
1.5455654e-02 0.0000000e+00 1.7035707e-02 
2.8447376e-02 1.0000000e-02 -1.2658389e-02 
2.6803852e-02 0.0000000e+00 -1.2609772e-02 
1.7052912e-02 0.0000000e+00 1.8033321e-02 
1.8674284e-02 1.0000000e-02 1.8991246e-02 
3.0091279e-02 1.0000000e-02 -1.2691814e-02 
2.8447376e-02 0.0000000e+00 -1.2658389e-02 
1.8674284e-02 0.0000000e+00 1.8991246e-02 
2.0317149e-02 1.0000000e-02 1.9911822e-02 
3.0091279e-02 0.0000000e+00 -1.2691814e-02 
3.1735410e-02 1.0000000e-02 -1.2710971e-02 
2.0317149e-02 0.0000000e+00 1.9911822e-02 
2.1979295e-02 1.0000000e-02 2.0797113e-02 
3.1735410e-02 0.0000000e+00 -1.2710971e-02 
3.3379643e-02 1.0000000e-02 -1.2716676e-02 
2.1979295e-02 0.0000000e+00 2.0797113e-02 
2.3658832e-02 1.0000000e-02 2.1648949e-02 
3.3379643e-02 0.0000000e+00 -1.2716676e-02 
3.5023871e-02 1.0000000e-02 -1.2709629e-02 
2.3658832e-02 0.0000000e+00 2.1648949e-02 
2.5354100e-02 1.0000000e-02 2.2469029e-02 
3.5023871e-02 0.0000000e+00 -1.2709629e-02 
3.6668001e-02 1.0000000e-02 -1.2690457e-02 
2.5354100e-02 0.0000000e+00 2.2469029e-02 
2.7063712e-02 1.0000000e-02 2.3258772e-02 
3.6668001e-02 0.0000000e+00 -1.2690457e-02 
3.8312016e-02 1.0000000e-02 -1.2663038e-02 
2.7063712e-02 0.0000000e+00 2.3258772e-02 
3.8312016e-02 0.0000000e+00 -1.2663038e-02 
2.8786417e-02 1.0000000e-02 2.4019532e-02 
3.9956032e-02 1.0000000e-02 -1.2635752e-02 
2.8786417e-02 0.0000000e+00 2.4019532e-02 
3.9956032e-02 0.0000000e+00 -1.2635752e-02 
3.0521135e-02 1.0000000e-02 2.4752486e-02 
4.1600048e-02 1.0000000e-02 -1.2608467e-02 
3.0521135e-02 0.0000000e+00 2.4752486e-02 
4.1600048e-02 0.0000000e+00 -1.2608467e-02 
3.2266919e-02 1.0000000e-02 2.5458676e-02 
4.3299814e-02 1.0000000e-02 -1.2580255e-02 
3.2266919e-02 0.0000000e+00 2.5458676e-02 
4.3299814e-02 0.0000000e+00 -1.2580255e-02 
3.4022902e-02 1.0000000e-02 2.6139111e-02 
4.5339533e-02 1.0000000e-02 -1.2546402e-02 
3.4022902e-02 0.0000000e+00 2.6139111e-02 
4.5339533e-02 0.0000000e+00 -1.2546402e-02 
3.5788340e-02 1.0000000e-02 2.6794623e-02 
4.7787196e-02 1.0000000e-02 -1.2505778e-02 
3.5788340e-02 0.0000000e+00 2.6794623e-02 
3.7562554e-02 1.0000000e-02 2.7425996e-02 
4.7787196e-02 0.0000000e+00 -1.2505778e-02 
3.7562554e-02 0.0000000e+00 2.7425996e-02 
3.9344928e-02 1.0000000e-02 2.8033950e-02 
5.0379113e-02 1.0000000e-02 -1.2462760e-02 
3.9344928e-02 0.0000000e+00 2.8033950e-02 
5.0379113e-02 0.0000000e+00 -1.2462760e-02 
4.1134916e-02 1.0000000e-02 2.8619109e-02 
5.2971029e-02 1.0000000e-02 -1.2419741e-02 
4.1134916e-02 0.0000000e+00 2.8619109e-02 
5.2971029e-02 0.0000000e+00 -1.2419741e-02 
4.2932026e-02 1.0000000e-02 2.9182016e-02 
4.2932026e-02 0.0000000e+00 2.9182016e-02 
5.5562946e-02 1.0000000e-02 -1.2376723e-02 
4.5339682e-02 1.0000000e-02 2.9899231e-02 
5.5562946e-02 0.0000000e+00 -1.2376723e-02 
4.5339682e-02 0.0000000e+00 2.9899231e-02 
5.8154863e-02 1.0000000e-02 -1.2333705e-02 
4.7758221e-02 1.0000000e-02 3.0578844e-02 
5.8154863e-02 0.0000000e+00 -1.2333705e-02 
4.7758221e-02 0.0000000e+00 3.0578844e-02 
6.0746779e-02 1.0000000e-02 -1.2290686e-02 
5.0186760e-02 1.0000000e-02 3.1221807e-02 
6.0746779e-02 0.0000000e+00 -1.2290686e-02 
5.0186760e-02 0.0000000e+00 3.1221807e-02 
6.3338696e-02 1.0000000e-02 -1.2247668e-02 
5.2624513e-02 1.0000000e-02 3.1828903e-02 
6.3338696e-02 0.0000000e+00 -1.2247668e-02 
5.2624513e-02 0.0000000e+00 3.1828903e-02 
5.5070762e-02 1.0000000e-02 3.2400804e-02 
6.5930613e-02 1.0000000e-02 -1.2204650e-02 
5.5070762e-02 0.0000000e+00 3.2400804e-02 
6.5930613e-02 0.0000000e+00 -1.2204650e-02 
5.7524847e-02 1.0000000e-02 3.2938082e-02 
6.8522529e-02 1.0000000e-02 -1.2161631e-02 
5.7524847e-02 0.0000000e+00 3.2938082e-02 
6.8522529e-02 0.0000000e+00 -1.2161631e-02 
5.9986169e-02 1.0000000e-02 3.3441170e-02 
7.1114446e-02 1.0000000e-02 -1.2118613e-02 
5.9986169e-02 0.0000000e+00 3.3441170e-02 
7.1114446e-02 0.0000000e+00 -1.2118613e-02 
6.2454163e-02 1.0000000e-02 3.3910436e-02 
6.2454163e-02 0.0000000e+00 3.3910436e-02 
7.3706362e-02 1.0000000e-02 -1.2075595e-02 
7.3706362e-02 0.0000000e+00 -1.2075595e-02 
6.4928303e-02 1.0000000e-02 3.4346139e-02 
6.4928303e-02 0.0000000e+00 3.4346139e-02 
7.6298279e-02 1.0000000e-02 -1.2032577e-02 
7.6298279e-02 0.0000000e+00 -1.2032577e-02 
6.7408092e-02 1.0000000e-02 3.4748446e-02 
6.7408092e-02 0.0000000e+00 3.4748446e-02 
7.8890196e-02 1.0000000e-02 -1.1989558e-02 
7.8890196e-02 0.0000000e+00 -1.1989558e-02 
6.9893057e-02 1.0000000e-02 3.5117436e-02 
6.9893057e-02 0.0000000e+00 3.5117436e-02 
8.1482112e-02 1.0000000e-02 -1.1946540e-02 
8.1482112e-02 0.0000000e+00 -1.1946540e-02 
7.2382742e-02 1.0000000e-02 3.5453098e-02 
7.2382742e-02 0.0000000e+00 3.5453098e-02 
8.4074029e-02 1.0000000e-02 -1.1903522e-02 
7.4876707e-02 1.0000000e-02 3.5755332e-02 
8.4074029e-02 0.0000000e+00 -1.1903522e-02 
7.4876707e-02 0.0000000e+00 3.5755332e-02 
8.6665946e-02 1.0000000e-02 -1.1860503e-02 
7.7374516e-02 1.0000000e-02 3.6023948e-02 
8.6665946e-02 0.0000000e+00 -1.1860503e-02 
7.7374516e-02 0.0000000e+00 3.6023948e-02 
8.9257862e-02 1.0000000e-02 -1.1817485e-02 
7.9875738e-02 1.0000000e-02 3.6258665e-02 
8.9257862e-02 0.0000000e+00 -1.1817485e-02 
7.9875738e-02 0.0000000e+00 3.6258665e-02 
8.2379940e-02 1.0000000e-02 3.6459105e-02 
9.1849779e-02 1.0000000e-02 -1.1774467e-02 
8.2379940e-02 0.0000000e+00 3.6459105e-02 
9.1849779e-02 0.0000000e+00 -1.1774467e-02 
8.4886681e-02 1.0000000e-02 3.6624786e-02 
9.4441696e-02 1.0000000e-02 -1.1731448e-02 
8.4886681e-02 0.0000000e+00 3.6624786e-02 
9.4441696e-02 0.0000000e+00 -1.1731448e-02 
8.7395510e-02 1.0000000e-02 3.6755108e-02 
8.7395510e-02 0.0000000e+00 3.6755108e-02 
9.7033612e-02 1.0000000e-02 -1.1688430e-02 
9.7033612e-02 0.0000000e+00 -1.1688430e-02 
8.9905951e-02 1.0000000e-02 3.6849401e-02 
8.9905951e-02 0.0000000e+00 3.6849401e-02 
9.9625529e-02 1.0000000e-02 -1.1645412e-02 
9.9625529e-02 0.0000000e+00 -1.1645412e-02 
9.2417505e-02 1.0000000e-02 3.6906832e-02 
9.2417505e-02 0.0000000e+00 3.6906832e-02 
1.0221745e-01 1.0000000e-02 -1.1602393e-02 
1.0221745e-01 0.0000000e+00 -1.1602393e-02 
9.4929640e-02 1.0000000e-02 3.6926425e-02 
9.4929640e-02 0.0000000e+00 3.6926425e-02 
1.0480936e-01 1.0000000e-02 -1.1559375e-02 
1.0480936e-01 0.0000000e+00 -1.1559375e-02 
9.7441776e-02 1.0000000e-02 3.6907077e-02 
9.7441776e-02 0.0000000e+00 3.6907077e-02 
1.0740128e-01 1.0000000e-02 -1.1516357e-02 
1.0740128e-01 0.0000000e+00 -1.1516357e-02 
9.9953281e-02 1.0000000e-02 3.6847529e-02 
9.9953281e-02 0.0000000e+00 3.6847529e-02 
1.0999320e-01 1.0000000e-02 -1.1473339e-02 
1.0246345e-01 1.0000000e-02 3.6746314e-02 
1.0999320e-01 0.0000000e+00 -1.1473339e-02 
1.0246345e-01 0.0000000e+00 3.6746314e-02 
1.0497150e-01 1.0000000e-02 3.6601738e-02 
1.1258511e-01 1.0000000e-02 -1.1430320e-02 
1.0497150e-01 0.0000000e+00 3.6601738e-02 
1.1258511e-01 0.0000000e+00 -1.1430320e-02 
1.0747666e-01 1.0000000e-02 3.6413638e-02 
1.1517703e-01 1.0000000e-02 -1.1387302e-02 
1.0747666e-01 0.0000000e+00 3.6413638e-02 
[...]
POINT_DATA 824
FIELD FieldData 2
DISPLACEMENT 3 824  float
0.0000000e+00 0.0000000e+00 0.0000000e+00 
0.0000000e+00 0.0000000e+00 0.0000000e+00 
0.0000000e+00 0.0000000e+00 0.0000000e+00 
0.0000000e+00 0.0000000e+00 0.0000000e+00 
0.0000000e+00 0.0000000e+00 0.0000000e+00 
0.0000000e+00 0.0000000e+00 0.0000000e+00 
0.0000000e+00 0.0000000e+00 0.0000000e+00 
0.0000000e+00 0.0000000e+00 0.0000000e+00 
0.0000000e+00 0.0000000e+00 0.0000000e+00 
0.0000000e+00 0.0000000e+00 0.0000000e+00 
0.0000000e+00 0.0000000e+00 0.0000000e+00 
0.0000000e+00 0.0000000e+00 0.0000000e+00 
0.0000000e+00 0.0000000e+00 0.0000000e+00 
0.0000000e+00 0.0000000e+00 0.0000000e+00 
0.0000000e+00 0.0000000e+00 0.0000000e+00 
0.0000000e+00 0.0000000e+00 0.0000000e+00 
0.0000000e+00 0.0000000e+00 0.0000000e+00 
0.0000000e+00 0.0000000e+00 0.0000000e+00 
0.0000000e+00 0.0000000e+00 0.0000000e+00 
0.0000000e+00 0.0000000e+00 0.0000000e+00 
0.0000000e+00 0.0000000e+00 0.0000000e+00 
0.0000000e+00 0.0000000e+00 0.0000000e+00 
0.0000000e+00 0.0000000e+00 0.0000000e+00 
0.0000000e+00 0.0000000e+00 0.0000000e+00 
0.0000000e+00 0.0000000e+00 0.0000000e+00 
0.0000000e+00 0.0000000e+00 0.0000000e+00 
0.0000000e+00 0.0000000e+00 0.0000000e+00 
0.0000000e+00 0.0000000e+00 0.0000000e+00 
0.0000000e+00 0.0000000e+00 0.0000000e+00 
0.0000000e+00 0.0000000e+00 0.0000000e+00 
0.0000000e+00 0.0000000e+00 0.0000000e+00 
0.0000000e+00 0.0000000e+00 0.0000000e+00 
0.0000000e+00 0.0000000e+00 0.0000000e+00 
0.0000000e+00 0.0000000e+00 0.0000000e+00 
0.0000000e+00 0.0000000e+00 0.0000000e+00 
0.0000000e+00 0.0000000e+00 0.0000000e+00 
0.0000000e+00 0.0000000e+00 0.0000000e+00 
0.0000000e+00 0.0000000e+00 0.0000000e+00 
0.0000000e+00 0.0000000e+00 0.0000000e+00 
0.0000000e+00 0.0000000e+00 0.0000000e+00 
0.0000000e+00 0.0000000e+00 0.0000000e+00 
0.0000000e+00 0.0000000e+00 0.0000000e+00 
0.0000000e+00 0.0000000e+00 0.0000000e+00 
0.0000000e+00 0.0000000e+00 0.0000000e+00 
0.0000000e+00 0.0000000e+00 0.0000000e+00 
0.0000000e+00 0.0000000e+00 0.0000000e+00 
0.0000000e+00 0.0000000e+00 0.0000000e+00 
0.0000000e+00 0.0000000e+00 0.0000000e+00 
0.0000000e+00 0.0000000e+00 0.0000000e+00 
0.0000000e+00 0.0000000e+00 0.0000000e+00 
0.0000000e+00 0.0000000e+00 0.0000000e+00 
0.0000000e+00 0.0000000e+00 0.0000000e+00 
0.0000000e+00 0.0000000e+00 0.0000000e+00 
0.0000000e+00 0.0000000e+00 0.0000000e+00 
0.0000000e+00 0.0000000e+00 0.0000000e+00 
0.0000000e+00 0.0000000e+00 0.0000000e+00 
0.0000000e+00 0.0000000e+00 0.0000000e+00 
0.0000000e+00 0.0000000e+00 0.0000000e+00 
0.0000000e+00 0.0000000e+00 0.0000000e+00 
0.0000000e+00 0.0000000e+00 0.0000000e+00 
0.0000000e+00 0.0000000e+00 0.0000000e+00 
0.0000000e+00 0.0000000e+00 0.0000000e+00 
0.0000000e+00 0.0000000e+00 0.0000000e+00 
0.0000000e+00 0.0000000e+00 0.0000000e+00 
0.0000000e+00 0.0000000e+00 0.0000000e+00 
0.0000000e+00 0.0000000e+00 0.0000000e+00 
0.0000000e+00 0.0000000e+00 0.0000000e+00 
0.0000000e+00 0.0000000e+00 0.0000000e+00 
0.0000000e+00 0.0000000e+00 0.0000000e+00 
0.0000000e+00 0.0000000e+00 0.0000000e+00 
0.0000000e+00 0.0000000e+00 0.0000000e+00 
0.0000000e+00 0.0000000e+00 0.0000000e+00 
0.0000000e+00 0.0000000e+00 0.0000000e+00 
0.0000000e+00 0.0000000e+00 0.0000000e+00 
0.0000000e+00 0.0000000e+00 0.0000000e+00 
0.0000000e+00 0.0000000e+00 0.0000000e+00 
0.0000000e+00 0.0000000e+00 0.0000000e+00 
0.0000000e+00 0.0000000e+00 0.0000000e+00 
0.0000000e+00 0.0000000e+00 0.0000000e+00 
0.0000000e+00 0.0000000e+00 0.0000000e+00 
0.0000000e+00 0.0000000e+00 0.0000000e+00 
0.0000000e+00 0.0000000e+00 0.0000000e+00 
0.0000000e+00 0.0000000e+00 0.0000000e+00 
0.0000000e+00 0.0000000e+00 0.0000000e+00 
0.0000000e+00 0.0000000e+00 0.0000000e+00 
0.0000000e+00 0.0000000e+00 0.0000000e+00 
0.0000000e+00 0.0000000e+00 0.0000000e+00 
0.0000000e+00 0.0000000e+00 0.0000000e+00 
0.0000000e+00 0.0000000e+00 0.0000000e+00 
0.0000000e+00 0.0000000e+00 0.0000000e+00 
0.0000000e+00 0.0000000e+00 0.0000000e+00 
0.0000000e+00 0.0000000e+00 0.0000000e+00 
0.0000000e+00 0.0000000e+00 0.0000000e+00 
0.0000000e+00 0.0000000e+00 0.0000000e+00 
0.0000000e+00 0.0000000e+00 0.0000000e+00 
0.0000000e+00 0.0000000e+00 0.0000000e+00 
0.0000000e+00 0.0000000e+00 0.0000000e+00 
-2.0355435e-05 0.0000000e+00 2.6873570e-04 
0.0000000e+00 0.0000000e+00 0.0000000e+00 
-2.0355435e-05 0.0000000e+00 2.6873570e-04 
0.0000000e+00 0.0000000e+00 0.0000000e+00 
-4.0186800e-05 0.0000000e+00 5.3436924e-04 
0.0000000e+00 0.0000000e+00 0.0000000e+00 
-4.0186800e-05 0.0000000e+00 5.3436924e-04 
0.0000000e+00 0.0000000e+00 0.0000000e+00 
-6.0147491e-05 0.0000000e+00 8.0575786e-04 
0.0000000e+00 0.0000000e+00 0.0000000e+00 
-6.0147491e-05 0.0000000e+00 8.0575786e-04 
0.0000000e+00 0.0000000e+00 0.0000000e+00 
-8.3383621e-05 0.0000000e+00 1.1270852e-03 
0.0000000e+00 0.0000000e+00 0.0000000e+00 
-8.3383621e-05 0.0000000e+00 1.1270852e-03 
0.0000000e+00 0.0000000e+00 0.0000000e+00 
-1.1025303e-04 0.0000000e+00 1.5064533e-03 
0.0000000e+00 0.0000000e+00 0.0000000e+00 
0.0000000e+00 0.0000000e+00 0.0000000e+00 
-1.1025303e-04 0.0000000e+00 1.5064533e-03 
0.0000000e+00 0.0000000e+00 0.0000000e+00 
0.0000000e+00 0.0000000e+00 0.0000000e+00 
-1.3752711e-04 0.0000000e+00 1.9008265e-03 
0.0000000e+00 0.0000000e+00 0.0000000e+00 
-1.3752711e-04 0.0000000e+00 1.9008265e-03 
0.0000000e+00 0.0000000e+00 0.0000000e+00 
-1.6361992e-04 0.0000000e+00 2.2877029e-03 
0.0000000e+00 0.0000000e+00 0.0000000e+00 
-1.6361992e-04 0.0000000e+00 2.2877029e-03 
0.0000000e+00 0.0000000e+00 0.0000000e+00 
0.0000000e+00 0.0000000e+00 0.0000000e+00 
-1.8856342e-04 0.0000000e+00 2.6671577e-03 
0.0000000e+00 0.0000000e+00 0.0000000e+00 
-1.8856342e-04 0.0000000e+00 2.6671577e-03 
0.0000000e+00 0.0000000e+00 0.0000000e+00 
-2.1238910e-04 0.0000000e+00 3.0392646e-03 
0.0000000e+00 0.0000000e+00 0.0000000e+00 
-2.1238910e-04 0.0000000e+00 3.0392646e-03 
0.0000000e+00 0.0000000e+00 0.0000000e+00 
-2.3512790e-04 0.0000000e+00 3.4040975e-03 
0.0000000e+00 0.0000000e+00 0.0000000e+00 
-2.3512790e-04 0.0000000e+00 3.4040975e-03 
0.0000000e+00 0.0000000e+00 0.0000000e+00 
-2.5681013e-04 0.0000000e+00 3.7617334e-03 
0.0000000e+00 0.0000000e+00 0.0000000e+00 
-2.5681013e-04 0.0000000e+00 3.7617334e-03 
0.0000000e+00 0.0000000e+00 0.0000000e+00 
0.0000000e+00 0.0000000e+00 0.0000000e+00 
-2.7746533e-04 0.0000000e+00 4.1122450e-03 
0.0000000e+00 0.0000000e+00 0.0000000e+00 
-2.7746533e-04 0.0000000e+00 4.1122450e-03 
0.0000000e+00 0.0000000e+00 0.0000000e+00 
-2.9712229e-04 0.0000000e+00 4.4557041e-03 
0.0000000e+00 0.0000000e+00 0.0000000e+00 
-2.9712229e-04 0.0000000e+00 4.4557041e-03 
0.0000000e+00 0.0000000e+00 0.0000000e+00 
-3.1580911e-04 0.0000000e+00 4.7921846e-03 
0.0000000e+00 0.0000000e+00 0.0000000e+00 
-3.1580911e-04 0.0000000e+00 4.7921846e-03 
0.0000000e+00 0.0000000e+00 0.0000000e+00 
0.0000000e+00 0.0000000e+00 0.0000000e+00 
-3.3355309e-04 0.0000000e+00 5.1217556e-03 
-3.3355309e-04 0.0000000e+00 5.1217556e-03 
0.0000000e+00 0.0000000e+00 0.0000000e+00 
0.0000000e+00 0.0000000e+00 0.0000000e+00 
-3.5038083e-04 0.0000000e+00 5.4444864e-03 
-3.5038083e-04 0.0000000e+00 5.4444864e-03 
0.0000000e+00 0.0000000e+00 0.0000000e+00 
0.0000000e+00 0.0000000e+00 0.0000000e+00 
-3.6631819e-04 0.0000000e+00 5.7604433e-03 
-3.6631819e-04 0.0000000e+00 5.7604433e-03 
0.0000000e+00 0.0000000e+00 0.0000000e+00 
0.0000000e+00 0.0000000e+00 0.0000000e+00 
-3.8139037e-04 0.0000000e+00 6.0696944e-03 
-3.8139037e-04 0.0000000e+00 6.0696944e-03 
0.0000000e+00 0.0000000e+00 0.0000000e+00 
0.0000000e+00 0.0000000e+00 0.0000000e+00 
-3.9562188e-04 0.0000000e+00 6.3723038e-03 
0.0000000e+00 0.0000000e+00 0.0000000e+00 
-3.9562188e-04 0.0000000e+00 6.3723038e-03 
0.0000000e+00 0.0000000e+00 0.0000000e+00 
-4.0903656e-04 0.0000000e+00 6.6683337e-03 
0.0000000e+00 0.0000000e+00 0.0000000e+00 
-4.0903656e-04 0.0000000e+00 6.6683337e-03 
0.0000000e+00 0.0000000e+00 0.0000000e+00 
-4.2165767e-04 0.0000000e+00 6.9578482e-03 
0.0000000e+00 0.0000000e+00 0.0000000e+00 
-4.2165767e-04 0.0000000e+00 6.9578482e-03 
0.0000000e+00 0.0000000e+00 0.0000000e+00 
0.0000000e+00 0.0000000e+00 0.0000000e+00 
-4.3350784e-04 0.0000000e+00 7.2409073e-03 
0.0000000e+00 0.0000000e+00 0.0000000e+00 
-4.3350784e-04 0.0000000e+00 7.2409073e-03 
0.0000000e+00 0.0000000e+00 0.0000000e+00 
-4.4460910e-04 0.0000000e+00 7.5175694e-03 
0.0000000e+00 0.0000000e+00 0.0000000e+00 
-4.4460910e-04 0.0000000e+00 7.5175694e-03 
0.0000000e+00 0.0000000e+00 0.0000000e+00 
0.0000000e+00 0.0000000e+00 0.0000000e+00 
-4.5498294e-04 0.0000000e+00 7.7878949e-03 
-4.5498294e-04 0.0000000e+00 7.7878949e-03 
0.0000000e+00 0.0000000e+00 0.0000000e+00 
0.0000000e+00 0.0000000e+00 0.0000000e+00 
-4.6465031e-04 0.0000000e+00 8.0519400e-03 
-4.6465031e-04 0.0000000e+00 8.0519400e-03 
0.0000000e+00 0.0000000e+00 0.0000000e+00 
0.0000000e+00 0.0000000e+00 0.0000000e+00 
-4.7363161e-04 0.0000000e+00 8.3097604e-03 
-4.7363161e-04 0.0000000e+00 8.3097604e-03 
0.0000000e+00 0.0000000e+00 0.0000000e+00 
0.0000000e+00 0.0000000e+00 0.0000000e+00 
-4.8194674e-04 0.0000000e+00 8.5614111e-03 
-4.8194674e-04 0.0000000e+00 8.5614111e-03 
0.0000000e+00 0.0000000e+00 0.0000000e+00 
0.0000000e+00 0.0000000e+00 0.0000000e+00 
-4.8961517e-04 0.0000000e+00 8.8069474e-03 
-4.8961517e-04 0.0000000e+00 8.8069474e-03 
0.0000000e+00 0.0000000e+00 0.0000000e+00 
0.0000000e+00 0.0000000e+00 0.0000000e+00 
-4.9665583e-04 0.0000000e+00 9.0464213e-03 
0.0000000e+00 0.0000000e+00 0.0000000e+00 
-4.9665583e-04 0.0000000e+00 9.0464213e-03 
0.0000000e+00 0.0000000e+00 0.0000000e+00 
-2.1434904e-05 0.0000000e+00 6.1872672e-04 
-5.0308718e-04 0.0000000e+00 9.2798825e-03 
-2.1434904e-05 0.0000000e+00 6.1872672e-04 
-5.0308718e-04 0.0000000e+00 9.2798825e-03 
-3.6351220e-05 0.0000000e+00 1.2591169e-03 
-5.0892735e-04 0.0000000e+00 9.5073861e-03 
-3.6351220e-05 0.0000000e+00 1.2591169e-03 
-5.0892735e-04 0.0000000e+00 9.5073861e-03 
-4.7060841e-05 0.0000000e+00 1.8911229e-03 
-4.7060841e-05 0.0000000e+00 1.8911229e-03 
-5.1419396e-04 0.0000000e+00 9.7289802e-03 
-5.1419396e-04 0.0000000e+00 9.7289802e-03 
-5.4854424e-05 0.0000000e+00 2.5036130e-03 
-5.4854424e-05 0.0000000e+00 2.5036130e-03 
-5.1890419e-04 0.0000000e+00 9.9447120e-03 
-5.1890419e-04 0.0000000e+00 9.9447120e-03 
-6.0001552e-05 0.0000000e+00 3.0975000e-03 
-6.0001552e-05 0.0000000e+00 3.0975000e-03 
-5.2307494e-04 0.0000000e+00 1.0154634e-02 
-5.2307494e-04 0.0000000e+00 1.0154634e-02 
-6.2725440e-05 0.0000000e+00 3.6735027e-03 
-6.2725440e-05 0.0000000e+00 3.6735027e-03 
-5.2672264e-04 0.0000000e+00 1.0358791e-02 
-5.2672264e-04 0.0000000e+00 1.0358791e-02 
-6.3224211e-05 0.0000000e+00 4.2322457e-03 
-6.3224211e-05 0.0000000e+00 4.2322457e-03 
-5.2986334e-04 0.0000000e+00 1.0557229e-02 
-5.2986334e-04 0.0000000e+00 1.0557229e-02 
-6.1676074e-05 0.0000000e+00 4.7742999e-03 
-6.1676074e-05 0.0000000e+00 4.7742999e-03 
-5.3251281e-04 0.0000000e+00 1.0749998e-02 
-5.8242673e-05 0.0000000e+00 5.3001743e-03 
-5.3251281e-04 0.0000000e+00 1.0749998e-02 
-5.8242673e-05 0.0000000e+00 5.3001743e-03 
-5.3071487e-05 0.0000000e+00 5.8103431e-03 
-5.3468639e-04 0.0000000e+00 1.0937140e-02 
-5.3071487e-05 0.0000000e+00 5.8103431e-03 
-5.3468639e-04 0.0000000e+00 1.0937140e-02 
-4.6298297e-05 0.0000000e+00 6.3052402e-03 
-5.3639911e-04 0.0000000e+00 1.1118699e-02 
-4.6298297e-05 0.0000000e+00 6.3052402e-03 
-5.3639911e-04 0.0000000e+00 1.1118699e-02 
-3.8048105e-05 0.0000000e+00 6.7852684e-03 
-3.8048105e-05 0.0000000e+00 6.7852684e-03 
-5.3766569e-04 0.0000000e+00 1.1294721e-02 
-5.3766569e-04 0.0000000e+00 1.1294721e-02 
-2.8436903e-05 0.0000000e+00 7.2508088e-03 
-2.8436903e-05 0.0000000e+00 7.2508088e-03 
-5.3850052e-04 0.0000000e+00 1.1465249e-02 
-5.3850052e-04 0.0000000e+00 1.1465249e-02 
-1.7572695e-05 0.0000000e+00 7.7022121e-03 
-1.7572695e-05 0.0000000e+00 7.7022121e-03 
-5.3891768e-04 0.0000000e+00 1.1630325e-02 
-5.3891768e-04 0.0000000e+00 1.1630325e-02 
-5.5560097e-06 0.0000000e+00 8.1398169e-03 
-5.5560097e-06 0.0000000e+00 8.1398169e-03 
-5.3893093e-04 0.0000000e+00 1.1789991e-02 
-5.3893093e-04 0.0000000e+00 1.1789991e-02 
7.5188971e-06 0.0000000e+00 8.5639362e-03 
7.5188971e-06 0.0000000e+00 8.5639362e-03 
-5.3855378e-04 0.0000000e+00 1.1944289e-02 
-5.3855378e-04 0.0000000e+00 1.1944289e-02 
2.1563946e-05 0.0000000e+00 8.9748736e-03 
2.1563946e-05 0.0000000e+00 8.9748736e-03 
-5.3779944e-04 0.0000000e+00 1.2093259e-02 
-5.3779944e-04 0.0000000e+00 1.2093259e-02 
3.6496122e-05 0.0000000e+00 9.3729141e-03 
3.6496122e-05 0.0000000e+00 9.3729141e-03 
-5.3668081e-04 0.0000000e+00 1.2236941e-02 
-5.3668081e-04 0.0000000e+00 1.2236941e-02 
5.2237577e-05 0.0000000e+00 9.7583305e-03 
5.2237577e-05 0.0000000e+00 9.7583305e-03 
-5.3521058e-04 0.0000000e+00 1.2375377e-02 
6.8714961e-05 0.0000000e+00 1.0131387e-02 
-5.3521058e-04 0.0000000e+00 1.2375377e-02 
6.8714961e-05 0.0000000e+00 1.0131387e-02 
-5.3340114e-04 0.0000000e+00 1.2508604e-02 
8.5858841e-05 0.0000000e+00 1.0492329e-02 
-5.3340114e-04 0.0000000e+00 1.2508604e-02 
8.5858841e-05 0.0000000e+00 1.0492329e-02 
1.0360396e-04 0.0000000e+00 1.0841403e-02 
-5.3126464e-04 0.0000000e+00 1.2636662e-02 
1.0360396e-04 0.0000000e+00 1.0841403e-02 
-5.3126464e-04 0.0000000e+00 1.2636662e-02 
1.2188828e-04 0.0000000e+00 1.1178835e-02 
1.2188828e-04 0.0000000e+00 1.1178835e-02 
-5.2881295e-04 0.0000000e+00 1.2759588e-02 
-5.2881295e-04 0.0000000e+00 1.2759588e-02 
1.4065343e-04 0.0000000e+00 1.1504851e-02 
1.4065343e-04 0.0000000e+00 1.1504851e-02 
-5.2605777e-04 0.0000000e+00 1.2877421e-02 
-5.2605777e-04 0.0000000e+00 1.2877421e-02 
1.5984381e-04 0.0000000e+00 1.1819665e-02 
1.5984381e-04 0.0000000e+00 1.1819665e-02 
-5.2301049e-04 0.0000000e+00 1.2990199e-02 
-5.2301049e-04 0.0000000e+00 1.2990199e-02 
1.7940700e-04 0.0000000e+00 1.2123486e-02 
1.7940700e-04 0.0000000e+00 1.2123486e-02 
-5.1968229e-04 0.0000000e+00 1.3097956e-02 
-5.1968229e-04 0.0000000e+00 1.3097956e-02 
1.9929299e-04 0.0000000e+00 1.2416512e-02 
1.9929299e-04 0.0000000e+00 1.2416512e-02 
-5.1608418e-04 0.0000000e+00 1.3200731e-02 
-5.1608418e-04 0.0000000e+00 1.3200731e-02 
2.1945454e-04 0.0000000e+00 1.2698939e-02 
2.1945454e-04 0.0000000e+00 1.2698939e-02 
-5.1222687e-04 0.0000000e+00 1.3298560e-02 
-5.1222687e-04 0.0000000e+00 1.3298560e-02 
2.3984682e-04 0.0000000e+00 1.2970956e-02 
2.3984682e-04 0.0000000e+00 1.2970956e-02 
-5.0812089e-04 0.0000000e+00 1.3391477e-02 
-5.0812089e-04 0.0000000e+00 1.3391477e-02 
2.6042696e-04 0.0000000e+00 1.3232744e-02 
2.6042696e-04 0.0000000e+00 1.3232744e-02 
-5.0377660e-04 0.0000000e+00 1.3479518e-02 
-5.0377660e-04 0.0000000e+00 1.3479518e-02 
2.8115458e-04 0.0000000e+00 1.3484482e-02 
2.8115458e-04 0.0000000e+00 1.3484482e-02 
-4.9920410e-04 0.0000000e+00 1.3562719e-02 
-4.9920410e-04 0.0000000e+00 1.3562719e-02 
3.0199099e-04 0.0000000e+00 1.3726341e-02 
3.0199099e-04 0.0000000e+00 1.3726341e-02 
-4.9441328e-04 0.0000000e+00 1.3641113e-02 
-4.9441328e-04 0.0000000e+00 1.3641113e-02 
3.2289965e-04 0.0000000e+00 1.3958491e-02 
3.2289965e-04 0.0000000e+00 1.3958491e-02 
-4.8941394e-04 0.0000000e+00 1.3714735e-02 
-4.8941394e-04 0.0000000e+00 1.3714735e-02 
3.4384557e-04 0.0000000e+00 1.4181092e-02 
3.4384557e-04 0.0000000e+00 1.4181092e-02 
-4.8421555e-04 0.0000000e+00 1.3783619e-02 
3.6479572e-04 0.0000000e+00 1.4394306e-02 
-4.8421555e-04 0.0000000e+00 1.3783619e-02 
3.6479572e-04 0.0000000e+00 1.4394306e-02 
3.8571843e-04 0.0000000e+00 1.4598285e-02 
-4.7882748e-04 0.0000000e+00 1.3847798e-02 
3.8571843e-04 0.0000000e+00 1.4598285e-02 
-4.7882748e-04 0.0000000e+00 1.3847798e-02 
4.0658373e-04 0.0000000e+00 1.4793182e-02 
-4.7325890e-04 0.0000000e+00 1.3907304e-02 
4.0658373e-04 0.0000000e+00 1.4793182e-02 
-4.7325890e-04 0.0000000e+00 1.3907304e-02 
4.2736317e-04 0.0000000e+00 1.4979146e-02 
4.2736317e-04 0.0000000e+00 1.4979146e-02 
-4.6751878e-04 0.0000000e+00 1.3962172e-02 
-4.6751878e-04 0.0000000e+00 1.3962172e-02 
4.4802946e-04 0.0000000e+00 1.5156317e-02 
4.4802946e-04 0.0000000e+00 1.5156317e-02 
-4.6161597e-04 0.0000000e+00 1.4012433e-02 
-4.6161597e-04 0.0000000e+00 1.4012433e-02 
4.6855689e-04 0.0000000e+00 1.5324840e-02 
4.6855689e-04 0.0000000e+00 1.5324840e-02 
-4.5555906e-04 0.0000000e+00 1.4058120e-02 
-4.5555906e-04 0.0000000e+00 1.4058120e-02 
4.8892078e-04 0.0000000e+00 1.5484848e-02 
4.8892078e-04 0.0000000e+00 1.5484848e-02 
-4.4935655e-04 0.0000000e+00 1.4099265e-02 
-4.4935655e-04 0.0000000e+00 1.4099265e-02 
5.0909788e-04 0.0000000e+00 1.5636480e-02 
5.0909788e-04 0.0000000e+00 1.5636480e-02 
-4.4301676e-04 0.0000000e+00 1.4135898e-02 
-4.4301676e-04 0.0000000e+00 1.4135898e-02 
5.2906589e-04 0.0000000e+00 1.5779865e-02 
5.2906589e-04 0.0000000e+00 1.5779865e-02 
-4.3654780e-04 0.0000000e+00 1.4168052e-02 
-4.3654780e-04 0.0000000e+00 1.4168052e-02 
5.4880374e-04 0.0000000e+00 1.5915132e-02 
5.4880374e-04 0.0000000e+00 1.5915132e-02 
-4.2995767e-04 0.0000000e+00 1.4195758e-02 
-4.2995767e-04 0.0000000e+00 1.4195758e-02 
5.6829152e-04 0.0000000e+00 1.6042408e-02 
5.6829152e-04 0.0000000e+00 1.6042408e-02 
-4.2325423e-04 0.0000000e+00 1.4219046e-02 
-4.2325423e-04 0.0000000e+00 1.4219046e-02 
5.8751000e-04 0.0000000e+00 1.6161816e-02 
5.8751000e-04 0.0000000e+00 1.6161816e-02 
-4.1644512e-04 0.0000000e+00 1.4237947e-02 
-4.1644512e-04 0.0000000e+00 1.4237947e-02 
6.0644129e-04 0.0000000e+00 1.6273479e-02 
6.0644129e-04 0.0000000e+00 1.6273479e-02 
-4.0953788e-04 0.0000000e+00 1.4252492e-02 
-4.0953788e-04 0.0000000e+00 1.4252492e-02 
6.2506816e-04 0.0000000e+00 1.6377514e-02 
6.2506816e-04 0.0000000e+00 1.6377514e-02 
-4.0253993e-04 0.0000000e+00 1.4262710e-02 
-4.0253993e-04 0.0000000e+00 1.4262710e-02 
6.4337438e-04 0.0000000e+00 1.6474037e-02 
6.4337438e-04 0.0000000e+00 1.6474037e-02 
-3.9545847e-04 0.0000000e+00 1.4268632e-02 
-3.9545847e-04 0.0000000e+00 1.4268632e-02 
6.6134428e-04 0.0000000e+00 1.6563157e-02 
6.6134428e-04 0.0000000e+00 1.6563157e-02 
-3.8830062e-04 0.0000000e+00 1.4270289e-02 
-3.8830062e-04 0.0000000e+00 1.4270289e-02 
6.7887913e-04 0.0000000e+00 1.6644619e-02 
6.7887913e-04 0.0000000e+00 1.6644619e-02 
-3.8105166e-04 0.0000000e+00 1.4267692e-02 
-3.8105166e-04 0.0000000e+00 1.4267692e-02 
6.9944517e-04 0.0000000e+00 1.6733027e-02 
6.9944517e-04 0.0000000e+00 1.6733027e-02 
-3.7227020e-04 0.0000000e+00 1.4258989e-02 
-3.7227020e-04 0.0000000e+00 1.4258989e-02 
7.2340927e-04 0.0000000e+00 1.6825883e-02 
7.2340927e-04 0.0000000e+00 1.6825883e-02 
-3.6162887e-04 0.0000000e+00 1.4240571e-02 
-3.6162887e-04 0.0000000e+00 1.4240571e-02 
7.5108858e-04 0.0000000e+00 1.6918647e-02 
7.5108858e-04 0.0000000e+00 1.6918647e-02 
-3.4886776e-04 0.0000000e+00 1.4207507e-02 
-3.4886776e-04 0.0000000e+00 1.4207507e-02 
7.7892365e-04 0.0000000e+00 1.6994895e-02 
7.7892365e-04 0.0000000e+00 1.6994895e-02 
-3.3600535e-04 0.0000000e+00 1.4162424e-02 
-3.3600535e-04 0.0000000e+00 1.4162424e-02 
8.0533557e-04 0.0000000e+00 1.7049678e-02 
8.0533557e-04 0.0000000e+00 1.7049678e-02 
-3.2307234e-04 0.0000000e+00 1.4105465e-02 
-3.2307234e-04 0.0000000e+00 1.4105465e-02 
8.3027318e-04 0.0000000e+00 1.7083583e-02 
8.3027318e-04 0.0000000e+00 1.7083583e-02 
-3.1009837e-04 0.0000000e+00 1.4036769e-02 
-3.1009837e-04 0.0000000e+00 1.4036769e-02 
8.5369095e-04 0.0000000e+00 1.7097175e-02 
8.5369095e-04 0.0000000e+00 1.7097175e-02 
-2.9711204e-04 0.0000000e+00 1.3956476e-02 
-2.9711204e-04 0.0000000e+00 1.3956476e-02 
8.7554875e-04 0.0000000e+00 1.7090997e-02 
8.7554875e-04 0.0000000e+00 1.7090997e-02 
-2.8414100e-04 0.0000000e+00 1.3864724e-02 
-2.8414100e-04 0.0000000e+00 1.3864724e-02 
8.9581216e-04 0.0000000e+00 1.7065586e-02 
8.9581216e-04 0.0000000e+00 1.7065586e-02 
-2.7121187e-04 0.0000000e+00 1.3761648e-02 
-2.7121187e-04 0.0000000e+00 1.3761648e-02 
9.1445143e-04 0.0000000e+00 1.7021458e-02 
9.1445143e-04 0.0000000e+00 1.7021458e-02 
-2.5835033e-04 0.0000000e+00 1.3647384e-02 
-2.5835033e-04 0.0000000e+00 1.3647384e-02 
9.3144189e-04 0.0000000e+00 1.6959122e-02 