# vtk DataFile Version 4.0
vtk output
ASCII
DATASET UNSTRUCTURED_GRID
POINTS 824 float
-6.4148600e-05 1.0000000e-02 -4.4525366e-03 
-1.0680180e-04 1.0000000e-02 -2.8088474e-03 
3.4513260e-04 1.0000000e-02 -6.0450544e-03 
1.3803532e-03 1.0000000e-02 -7.3230534e-03 
6.5829700e-05 1.0000000e-02 -1.1736922e-03 
2.7142144e-03 1.0000000e-02 -8.2851896e-03 
5.0392030e-04 1.0000000e-02 6.5784910e-04 
4.1780764e-03 1.0000000e-02 -9.0342357e-03 
1.1628646e-03 1.0000000e-02 2.4220088e-03 
5.7070961e-03 1.0000000e-02 -9.6390187e-03 
2.0046218e-03 1.0000000e-02 4.1066196e-03 
7.2731595e-03 1.0000000e-02 -1.0140047e-02 
-6.4148600e-05 0.0000000e+00 -4.4525366e-03 
-1.0680180e-04 0.0000000e+00 -2.8088474e-03 
3.4513260e-04 0.0000000e+00 -6.0450544e-03 
1.3803532e-03 0.0000000e+00 -7.3230534e-03 
6.5829700e-05 0.0000000e+00 -1.1736922e-03 
2.9952540e-03 1.0000000e-02 5.7082181e-03 
8.8622628e-03 1.0000000e-02 -1.0562311e-02 
2.7142144e-03 0.0000000e+00 -8.2851896e-03 
5.0392030e-04 0.0000000e+00 6.5784910e-04 
4.1780764e-03 0.0000000e+00 -9.0342357e-03 
1.1628646e-03 0.0000000e+00 2.4220088e-03 
1.0466628e-02 1.0000000e-02 -1.0922252e-02 
4.1067238e-03 1.0000000e-02 7.2284501e-03 
5.7070961e-03 0.0000000e+00 -9.6390187e-03 
2.0046218e-03 0.0000000e+00 4.1066196e-03 
7.2731595e-03 0.0000000e+00 -1.0140047e-02 
1.2081579e-02 1.0000000e-02 -1.1231240e-02 
5.3166988e-03 1.0000000e-02 8.6715129e-03 
2.9952540e-03 0.0000000e+00 5.7082181e-03 
8.8622628e-03 0.0000000e+00 -1.0562311e-02 
1.3704120e-02 1.0000000e-02 -1.1497501e-02 
1.0466628e-02 0.0000000e+00 -1.0922252e-02 
4.1067238e-03 0.0000000e+00 7.2284501e-03 
6.6076374e-03 1.0000000e-02 1.0042624e-02 
1.5332244e-02 1.0000000e-02 -1.1727173e-02 
1.2081579e-02 0.0000000e+00 -1.1231240e-02 
5.3166988e-03 0.0000000e+00 8.6715129e-03 
7.9658343e-03 1.0000000e-02 1.1347144e-02 
1.3704120e-02 0.0000000e+00 -1.1497501e-02 
1.6964543e-02 1.0000000e-02 -1.1925002e-02 
6.6076374e-03 0.0000000e+00 1.0042624e-02 
9.3804686e-03 1.0000000e-02 1.2590236e-02 
1.5332244e-02 0.0000000e+00 -1.1727173e-02 
1.8600004e-02 1.0000000e-02 -1.2094716e-02 
7.9658343e-03 0.0000000e+00 1.1347144e-02 
1.6964543e-02 0.0000000e+00 -1.1925002e-02 
1.0843002e-02 1.0000000e-02 1.3776601e-02 
2.0237876e-02 1.0000000e-02 -1.2239318e-02 
9.3804686e-03 0.0000000e+00 1.2590236e-02 
1.8600004e-02 0.0000000e+00 -1.2094716e-02 
1.2346566e-02 1.0000000e-02 1.4910517e-02 
2.1877591e-02 1.0000000e-02 -1.2361246e-02 
1.0843002e-02 0.0000000e+00 1.3776601e-02 
2.0237876e-02 0.0000000e+00 -1.2239318e-02 
1.3885623e-02 1.0000000e-02 1.5995768e-02 
2.3518711e-02 1.0000000e-02 -1.2462540e-02 
1.2346566e-02 0.0000000e+00 1.4910517e-02 
2.1877591e-02 0.0000000e+00 -1.2361246e-02 
2.5160890e-02 1.0000000e-02 -1.2544903e-02 
1.5455654e-02 1.0000000e-02 1.7035707e-02 
1.3885623e-02 0.0000000e+00 1.5995768e-02 
2.3518711e-02 0.0000000e+00 -1.2462540e-02 
2.6803852e-02 1.0000000e-02 -1.2609772e-02 
1.7052912e-02 1.0000000e-02 1.8033321e-02 
2.5160890e-02 0.0000000e+00 -1.2544903e-02 
1.5455654e-02 0.0000000e+00 1.7035707e-02 
2.8447376e-02 1.0000000e-02 -1.2658389e-02 
2.6803852e-02 0.0000000e+00 -1.2609772e-02 
1.7052912e-02 0.0000000e+00 1.8033321e-02 
1.8674284e-02 1.0000000e-02 1.8991246e-02 
3.0091279e-02 1.0000000e-02 -1.2691814e-02 
2.8447376e-02 0.0000000e+00 -1.2658389e-02 
1.8674284e-02 0.0000000e+00 1.8991246e-02 
2.0317149e-02 1.0000000e-02 1.9911822e-02 
3.0091279e-02 0.0000000e+00 -1.2691814e-02 
3.1735410e-02 1.0000000e-02 -1.2710971e-02 
2.0317149e-02 0.0000000e+00 1.9911822e-02 
2.1979295e-02 1.0000000e-02 2.0797113e-02 
3.1735410e-02 0.0000000e+00 -1.2710971e-02 
3.3379643e-02 1.0000000e-02 -1.2716676e-02 
2.1979295e-02 0.0000000e+00 2.0797113e-02 
2.3658832e-02 1.0000000e-02 2.1648949e-02 
3.3379643e-02 0.0000000e+00 -1.2716676e-02 
3.5023871e-02 1.0000000e-02 -1.2709629e-02 
2.3658832e-02 0.0000000e+00 2.1648949e-02 
2.5354100e-02 1.0000000e-02 2.2469029e-02 
3.5023871e-02 0.0000000e+00 -1.2709629e-02 
3.6668001e-02 1.0000000e-02 -1.2690457e-02 
2.5354100e-02 0.0000000e+00 2.2469029e-02 
2.7063712e-02 1.0000000e-02 2.3258772e-02 
3.6668001e-02 0.0000000e+00 -1.2690457e-02 
3.8312016e-02 1.0000000e-02 -1.2663038e-02 
2.7063712e-02 0.0000000e+00 2.3258772e-02 
3.8312016e-02 0.0000000e+00 -1.2663038e-02 
2.8786417e-02 1.0000000e-02 2.4019532e-02 
3.9956032e-02 1.0000000e-02 -1.2635752e-02 
2.8786417e-02 0.0000000e+00 2.4019532e-02 
3.9956032e-02 0.0000000e+00 -1.2635752e-02 
3.0521135e-02 1.0000000e-02 2.4752486e-02 
4.1600048e-02 1.0000000e-02 -1.2608467e-02 
3.0521135e-02 0.0000000e+00 2.4752486e-02 
4.1600048e-02 0.0000000e+00 -1.2608467e-02 
3.2266919e-02 1.0000000e-02 2.5458676e-02 
4.3299814e-02 1.0000000e-02 -1.2580255e-02 
3.2266919e-02 0.0000000e+00 2.5458676e-02 
4.3299814e-02 0.0000000e+00 -1.2580255e-02 
3.4022902e-02 1.0000000e-02 2.6139111e-02 
4.5339533e-02 1.0000000e-02 -1.2546402e-02 
3.4022902e-02 0.0000000e+00 2.6139111e-02 
4.5339533e-02 0.0000000e+00 -1.2546402e-02 
3.5788340e-02 1.0000000e-02 2.6794623e-02 
4.7787196e-02 1.0000000e-02 -1.2505778e-02 
3.5788340e-02 0.0000000e+00 2.6794623e-02 
3.7562554e-02 1.0000000e-02 2.7425996e-02 
4.7787196e-02 0.0000000e+00 -1.2505778e-02 
3.7562554e-02 0.0000000e+00 2.7425996e-02 
3.9344928e-02 1.0000000e-02 2.8033950e-02 
5.0379113e-02 1.0000000e-02 -1.2462760e-02 
3.9344928e-02 0.0000000e+00 2.8033950e-02 
5.0379113e-02 0.0000000e+00 -1.2462760e-02 
4.1134916e-02 1.0000000e-02 2.8619109e-02 
5.2971029e-02 1.0000000e-02 -1.2419741e-02 
4.1134916e-02 0.0000000e+00 2.8619109e-02 
5.2971029e-02 0.0000000e+00 -1.2419741e-02 
4.2932026e-02 1.0000000e-02 2.9182016e-02 
4.2932026e-02 0.0000000e+00 2.9182016e-02 
5.5562946e-02 1.0000000e-02 -1.2376723e-02 
4.5339682e-02 1.0000000e-02 2.9899231e-02 
5.5562946e-02 0.0000000e+00 -1.2376723e-02 
4.5339682e-02 0.0000000e+00 2.9899231e-02 
5.8154863e-02 1.0000000e-02 -1.2333705e-02 
4.7758221e-02 1.0000000e-02 3.0578844e-02 
5.8154863e-02 0.0000000e+00 -1.2333705e-02 
4.7758221e-02 0.0000000e+00 3.0578844e-02 
6.0746779e-02 1.0000000e-02 -1.2290686e-02 
5.0186760e-02 1.0000000e-02 3.1221807e-02 
6.0746779e-02 0.0000000e+00 -1.2290686e-02 
5.0186760e-02 0.0000000e+00 3.1221807e-02 
6.3338696e-02 1.0000000e-02 -1.2247668e-02 
5.2624513e-02 1.0000000e-02 3.1828903e-02 
6.3338696e-02 0.0000000e+00 -1.2247668e-02 
5.2624513e-02 0.0000000e+00 3.1828903e-02 
5.5070762e-02 1.0000000e-02 3.2400804e-02 
6.5930613e-02 1.0000000e-02 -1.2204650e-02 
5.5070762e-02 0.0000000e+00 3.2400804e-02 
6.5930613e-02 0.0000000e+00 -1.2204650e-02 
5.7524847e-02 1.0000000e-02 3.2938082e-02 
6.8522529e-02 1.0000000e-02 -1.2161631e-02 
5.7524847e-02 0.0000000e+00 3.2938082e-02 
6.8522529e-02 0.0000000e+00 -1.2161631e-02 
5.9986169e-02 1.0000000e-02 3.3441170e-02 
7.1114446e-02 1.0000000e-02 -1.2118613e-02 
5.9986169e-02 0.0000000e+00 3.3441170e-02 
7.1114446e-02 0.0000000e+00 -1.2118613e-02 
6.2454163e-02 1.0000000e-02 3.3910436e-02 
6.2454163e-02 0.0000000e+00 3.3910436e-02 
7.3706362e-02 1.0000000e-02 -1.2075595e-02 
7.3706362e-02 0.0000000e+00 -1.2075595e-02 
6.4928303e-02 1.0000000e-02 3.4346139e-02 
6.4928303e-02 0.0000000e+00 3.4346139e-02 
7.6298279e-02 1.0000000e-02 -1.2032577e-02 
7.6298279e-02 0.0000000e+00 -1.2032577e-02 
6.7408092e-02 1.0000000e-02 3.4748446e-02 
6.7408092e-02 0.0000000e+00 3.4748446e-02 
7.8890196e-02 1.0000000e-02 -1.1989558e-02 
7.8890196e-02 0.0000000e+00 -1.1989558e-02 
6.9893057e-02 1.0000000e-02 3.5117436e-02 
6.9893057e-02 0.0000000e+00 3.5117436e-02 
8.1482112e-02 1.0000000e-02 -1.1946540e-02 
8.1482112e-02 0.0000000e+00 -1.1946540e-02 
7.2382742e-02 1.0000000e-02 3.5453098e-02 
7.2382742e-02 0.0000000e+00 3.5453098e-02 
8.4074029e-02 1.0000000e-02 -1.1903522e-02 
7.4876707e-02 1.0000000e-02 3.5755332e-02 
8.4074029e-02 0.0000000e+00 -1.1903522e-02 
7.4876707e-02 0.0000000e+00 3.5755332e-02 
8.6665946e-02 1.0000000e-02 -1.1860503e-02 
7.7374516e-02 1.0000000e-02 3.6023948e-02 
8.6665946e-02 0.0000000e+00 -1.1860503e-02 
7.7374516e-02 0.0000000e+00 3.6023948e-02 
8.9257862e-02 1.0000000e-02 -1.1817485e-02 
7.9875738e-02 1.0000000e-02 3.6258665e-02 
8.9257862e-02 0.0000000e+00 -1.1817485e-02 
7.9875738e-02 0.0000000e+00 3.6258665e-02 
8.2379940e-02 1.0000000e-02 3.6459105e-02 
9.1849779e-02 1.0000000e-02 -1.1774467e-02 
8.2379940e-02 0.0000000e+00 3.6459105e-02 
9.1849779e-02 0.0000000e+00 -1.1774467e-02 
8.4886681e-02 1.0000000e-02 3.6624786e-02 
9.4441696e-02 1.0000000e-02 -1.1731448e-02 
8.4886681e-02 0.0000000e+00 3.6624786e-02 
9.4441696e-02 0.0000000e+00 -1.1731448e-02 
8.7395510e-02 1.0000000e-02 3.6755108e-02 
8.7395510e-02 0.0000000e+00 3.6755108e-02 
9.7033612e-02 1.0000000e-02 -1.1688430e-02 
9.7033612e-02 0.0000000e+00 -1.1688430e-02 
8.9905951e-02 1.0000000e-02 3.6849401e-02 
8.9905951e-02 0.0000000e+00 3.6849401e-02 
9.9625529e-02 1.0000000e-02 -1.1645412e-02 
9.9625529e-02 0.0000000e+00 -1.1645412e-02 
9.2417505e-02 1.0000000e-02 3.6906832e-02 
9.2417505e-02 0.0000000e+00 3.6906832e-02 
1.0221745e-01 1.0000000e-02 -1.1602393e-02 
1.0221745e-01 0.0000000e+00 -1.1602393e-02 
9.4929640e-02 1.0000000e-02 3.6926425e-02 
9.4929640e-02 0.0000000e+00 3.6926425e-02 
1.0480936e-01 1.0000000e-02 -1.1559375e-02 
1.0480936e-01 0.0000000e+00 -1.1559375e-02 
9.7441776e-02 1.0000000e-02 3.6907077e-02 
9.7441776e-02 0.0000000e+00 3.6907077e-02 
1.0740128e-01 1.0000000e-02 -1.1516357e-02 
1.0740128e-01 0.0000000e+00 -1.1516357e-02 
9.9953281e-02 1.0000000e-02 3.6847529e-02 
9.9953281e-02 0.0000000e+00 3.6847529e-02 
1.0999320e-01 1.0000000e-02 -1.1473339e-02 
1.0246345e-01 1.0000000e-02 3.6746314e-02 
1.0999320e-01 0.0000000e+00 -1.1473339e-02 
1.0246345e-01 0.0000000e+00 3.6746314e-02 
1.0497150e-01 1.0000000e-02 3.6601738e-02 
1.1258511e-01 1.0000000e-02 -1.1430320e-02 
1.0497150e-01 0.0000000e+00 3.6601738e-02 
1.1258511e-01 0.0000000e+00 -1.1430320e-02 
1.0747666e-01 1.0000000e-02 3.6413638e-02 
1.1517703e-01 1.0000000e-02 -1.1387302e-02 
1.0747666e-01 0.0000000e+00 3.6413638e-02 
[...]
POINT_DATA 824
FIELD FieldData 2
DISPLACEMENT 3 824  float
0.0000000e+00 0.0000000e+00 0.0000000e+00 
0.0000000e+00 0.0000000e+00 0.0000000e+00 
0.0000000e+00 0.0000000e+00 0.0000000e+00 
0.0000000e+00 0.0000000e+00 0.0000000e+00 
0.0000000e+00 0.0000000e+00 0.0000000e+00 
0.0000000e+00 0.0000000e+00 0.0000000e+00 
0.0000000e+00 0.0000000e+00 0.0000000e+00 
0.0000000e+00 0.0000000e+00 0.0000000e+00 
0.0000000e+00 0.0000000e+00 0.0000000e+00 
0.0000000e+00 0.0000000e+00 0.0000000e+00 
0.0000000e+00 0.0000000e+00 0.0000000e+00 
0.0000000e+00 0.0000000e+00 0.0000000e+00 
0.0000000e+00 0.0000000e+00 0.0000000e+00 
0.0000000e+00 0.0000000e+00 0.0000000e+00 
0.0000000e+00 0.0000000e+00 0.0000000e+00 
0.0000000e+00 0.0000000e+00 0.0000000e+00 
0.0000000e+00 0.0000000e+00 0.0000000e+00 
0.0000000e+00 0.0000000e+00 0.0000000e+00 
0.0000000e+00 0.0000000e+00 0.0000000e+00 
0.0000000e+00 0.0000000e+00 0.0000000e+00 
0.0000000e+00 0.0000000e+00 0.0000000e+00 
0.0000000e+00 0.0000000e+00 0.0000000e+00 
0.0000000e+00 0.0000000e+00 0.0000000e+00 
0.0000000e+00 0.0000000e+00 0.0000000e+00 
0.0000000e+00 0.0000000e+00 0.0000000e+00 
0.0000000e+00 0.0000000e+00 0.0000000e+00 
0.0000000e+00 0.0000000e+00 0.0000000e+00 
0.0000000e+00 0.0000000e+00 0.0000000e+00 
0.0000000e+00 0.0000000e+00 0.0000000e+00 
0.0000000e+00 0.0000000e+00 0.0000000e+00 
0.0000000e+00 0.0000000e+00 0.0000000e+00 
0.0000000e+00 0.0000000e+00 0.0000000e+00 
0.0000000e+00 0.0000000e+00 0.0000000e+00 
0.0000000e+00 0.0000000e+00 0.0000000e+00 
0.0000000e+00 0.0000000e+00 0.0000000e+00 
0.0000000e+00 0.0000000e+00 0.0000000e+00 
0.0000000e+00 0.0000000e+00 0.0000000e+00 
0.0000000e+00 0.0000000e+00 0.0000000e+00 
0.0000000e+00 0.0000000e+00 0.0000000e+00 
0.0000000e+00 0.0000000e+00 0.0000000e+00 
0.0000000e+00 0.0000000e+00 0.0000000e+00 
0.0000000e+00 0.0000000e+00 0.0000000e+00 
0.0000000e+00 0.0000000e+00 0.0000000e+00 
0.0000000e+00 0.0000000e+00 0.0000000e+00 
0.0000000e+00 0.0000000e+00 0.0000000e+00 
0.0000000e+00 0.0000000e+00 0.0000000e+00 
0.0000000e+00 0.0000000e+00 0.0000000e+00 
0.0000000e+00 0.0000000e+00 0.0000000e+00 
0.0000000e+00 0.0000000e+00 0.0000000e+00 
0.0000000e+00 0.0000000e+00 0.0000000e+00 
0.0000000e+00 0.0000000e+00 0.0000000e+00 
0.0000000e+00 0.0000000e+00 0.0000000e+00 
0.0000000e+00 0.0000000e+00 0.0000000e+00 
0.0000000e+00 0.0000000e+00 0.0000000e+00 
0.0000000e+00 0.0000000e+00 0.0000000e+00 
0.0000000e+00 0.0000000e+00 0.0000000e+00 
0.0000000e+00 0.0000000e+00 0.0000000e+00 
0.0000000e+00 0.0000000e+00 0.0000000e+00 
0.0000000e+00 0.0000000e+00 0.0000000e+00 
0.0000000e+00 0.0000000e+00 0.0000000e+00 
0.0000000e+00 0.0000000e+00 0.0000000e+00 
0.0000000e+00 0.0000000e+00 0.0000000e+00 
0.0000000e+00 0.0000000e+00 0.0000000e+00 
0.0000000e+00 0.0000000e+00 0.0000000e+00 
0.0000000e+00 0.0000000e+00 0.0000000e+00 
0.0000000e+00 0.0000000e+00 0.0000000e+00 
0.0000000e+00 0.0000000e+00 0.0000000e+00 
0.0000000e+00 0.0000000e+00 0.0000000e+00 
0.0000000e+00 0.0000000e+00 0.0000000e+00 
0.0000000e+00 0.0000000e+00 0.0000000e+00 
0.0000000e+00 0.0000000e+00 0.0000000e+00 
0.0000000e+00 0.0000000e+00 0.0000000e+00 
0.0000000e+00 0.0000000e+00 0.0000000e+00 
0.0000000e+00 0.0000000e+00 0.0000000e+00 
0.0000000e+00 0.0000000e+00 0.0000000e+00 
0.0000000e+00 0.0000000e+00 0.0000000e+00 
0.0000000e+00 0.0000000e+00 0.0000000e+00 
0.0000000e+00 0.0000000e+00 0.0000000e+00 
0.0000000e+00 0.0000000e+00 0.0000000e+00 
0.0000000e+00 0.0000000e+00 0.0000000e+00 
0.0000000e+00 0.0000000e+00 0.0000000e+00 
0.0000000e+00 0.0000000e+00 0.0000000e+00 
0.0000000e+00 0.0000000e+00 0.0000000e+00 
0.0000000e+00 0.0000000e+00 0.0000000e+00 
0.0000000e+00 0.0000000e+00 0.0000000e+00 
0.0000000e+00 0.0000000e+00 0.0000000e+00 
0.0000000e+00 0.0000000e+00 0.0000000e+00 
0.0000000e+00 0.0000000e+00 0.0000000e+00 
0.0000000e+00 0.0000000e+00 0.0000000e+00 
0.0000000e+00 0.0000000e+00 0.0000000e+00 
0.0000000e+00 0.0000000e+00 0.0000000e+00 
0.0000000e+00 0.0000000e+00 0.0000000e+00 
0.0000000e+00 0.0000000e+00 0.0000000e+00 
0.0000000e+00 0.0000000e+00 0.0000000e+00 
0.0000000e+00 0.0000000e+00 0.0000000e+00 
0.0000000e+00 0.0000000e+00 0.0000000e+00 
0.0000000e+00 0.0000000e+00 0.0000000e+00 
-3.5318698e-05 0.0000000e+00 3.8536792e-04 
0.0000000e+00 0.0000000e+00 0.0000000e+00 
-3.5318698e-05 0.0000000e+00 3.8536792e-04 
0.0000000e+00 0.0000000e+00 0.0000000e+00 
-7.0400828e-05 0.0000000e+00 7.6980108e-04 
0.0000000e+00 0.0000000e+00 0.0000000e+00 
-7.0400828e-05 0.0000000e+00 7.6980108e-04 
0.0000000e+00 0.0000000e+00 0.0000000e+00 
-1.0639167e-04 0.0000000e+00 1.1661568e-03 
0.0000000e+00 0.0000000e+00 0.0000000e+00 
-1.0639167e-04 0.0000000e+00 1.1661568e-03 
0.0000000e+00 0.0000000e+00 0.0000000e+00 
-1.4916206e-04 0.0000000e+00 1.6401249e-03 
0.0000000e+00 0.0000000e+00 0.0000000e+00 
-1.4916206e-04 0.0000000e+00 1.6401249e-03 
0.0000000e+00 0.0000000e+00 0.0000000e+00 
-1.9982843e-04 0.0000000e+00 2.2062729e-03 
0.0000000e+00 0.0000000e+00 0.0000000e+00 
0.0000000e+00 0.0000000e+00 0.0000000e+00 
-1.9982843e-04 0.0000000e+00 2.2062729e-03 
0.0000000e+00 0.0000000e+00 0.0000000e+00 
0.0000000e+00 0.0000000e+00 0.0000000e+00 
-2.5260291e-04 0.0000000e+00 2.8022906e-03 
0.0000000e+00 0.0000000e+00 0.0000000e+00 
-2.5260291e-04 0.0000000e+00 2.8022906e-03 
0.0000000e+00 0.0000000e+00 0.0000000e+00 
-3.0436530e-04 0.0000000e+00 3.3942568e-03 
0.0000000e+00 0.0000000e+00 0.0000000e+00 
-3.0436530e-04 0.0000000e+00 3.3942568e-03 
0.0000000e+00 0.0000000e+00 0.0000000e+00 
0.0000000e+00 0.0000000e+00 0.0000000e+00 
-3.5501364e-04 0.0000000e+00 3.9817399e-03 
0.0000000e+00 0.0000000e+00 0.0000000e+00 
-3.5501364e-04 0.0000000e+00 3.9817399e-03 
0.0000000e+00 0.0000000e+00 0.0000000e+00 
-4.0444071e-04 0.0000000e+00 4.5642594e-03 
0.0000000e+00 0.0000000e+00 0.0000000e+00 
-4.0444071e-04 0.0000000e+00 4.5642594e-03 
0.0000000e+00 0.0000000e+00 0.0000000e+00 
-4.5258612e-04 0.0000000e+00 5.1415154e-03 
0.0000000e+00 0.0000000e+00 0.0000000e+00 
-4.5258612e-04 0.0000000e+00 5.1415154e-03 
0.0000000e+00 0.0000000e+00 0.0000000e+00 
-4.9944374e-04 0.0000000e+00 5.7134424e-03 
0.0000000e+00 0.0000000e+00 0.0000000e+00 
-4.9944374e-04 0.0000000e+00 5.7134424e-03 
0.0000000e+00 0.0000000e+00 0.0000000e+00 
0.0000000e+00 0.0000000e+00 0.0000000e+00 
-5.4497941e-04 0.0000000e+00 6.2798528e-03 
0.0000000e+00 0.0000000e+00 0.0000000e+00 
-5.4497941e-04 0.0000000e+00 6.2798528e-03 
0.0000000e+00 0.0000000e+00 0.0000000e+00 
-5.8913773e-04 0.0000000e+00 6.8404473e-03 
0.0000000e+00 0.0000000e+00 0.0000000e+00 
-5.8913773e-04 0.0000000e+00 6.8404473e-03 
0.0000000e+00 0.0000000e+00 0.0000000e+00 
-6.3190383e-04 0.0000000e+00 7.3950949e-03 
0.0000000e+00 0.0000000e+00 0.0000000e+00 
-6.3190383e-04 0.0000000e+00 7.3950949e-03 
0.0000000e+00 0.0000000e+00 0.0000000e+00 
0.0000000e+00 0.0000000e+00 0.0000000e+00 
-6.7329206e-04 0.0000000e+00 7.9438010e-03 
-6.7329206e-04 0.0000000e+00 7.9438010e-03 
0.0000000e+00 0.0000000e+00 0.0000000e+00 
0.0000000e+00 0.0000000e+00 0.0000000e+00 
-7.1328466e-04 0.0000000e+00 8.4864333e-03 
-7.1328466e-04 0.0000000e+00 8.4864333e-03 
0.0000000e+00 0.0000000e+00 0.0000000e+00 
0.0000000e+00 0.0000000e+00 0.0000000e+00 
-7.5183527e-04 0.0000000e+00 9.0227068e-03 
-7.5183527e-04 0.0000000e+00 9.0227068e-03 
0.0000000e+00 0.0000000e+00 0.0000000e+00 
0.0000000e+00 0.0000000e+00 0.0000000e+00 
-7.8893565e-04 0.0000000e+00 9.5525018e-03 
-7.8893565e-04 0.0000000e+00 9.5525018e-03 
0.0000000e+00 0.0000000e+00 0.0000000e+00 
0.0000000e+00 0.0000000e+00 0.0000000e+00 
-8.2461115e-04 0.0000000e+00 1.0075866e-02 
0.0000000e+00 0.0000000e+00 0.0000000e+00 
-8.2461115e-04 0.0000000e+00 1.0075866e-02 
0.0000000e+00 0.0000000e+00 0.0000000e+00 
-8.5885091e-04 0.0000000e+00 1.0592681e-02 
0.0000000e+00 0.0000000e+00 0.0000000e+00 
-8.5885091e-04 0.0000000e+00 1.0592681e-02 
0.0000000e+00 0.0000000e+00 0.0000000e+00 
-8.9162330e-04 0.0000000e+00 1.1102708e-02 
0.0000000e+00 0.0000000e+00 0.0000000e+00 
-8.9162330e-04 0.0000000e+00 1.1102708e-02 
0.0000000e+00 0.0000000e+00 0.0000000e+00 
0.0000000e+00 0.0000000e+00 0.0000000e+00 
-9.2293742e-04 0.0000000e+00 1.1605886e-02 
0.0000000e+00 0.0000000e+00 0.0000000e+00 
-9.2293742e-04 0.0000000e+00 1.1605886e-02 
0.0000000e+00 0.0000000e+00 0.0000000e+00 
-9.5282812e-04 0.0000000e+00 1.2102304e-02 
0.0000000e+00 0.0000000e+00 0.0000000e+00 
-9.5282812e-04 0.0000000e+00 1.2102304e-02 
0.0000000e+00 0.0000000e+00 0.0000000e+00 
0.0000000e+00 0.0000000e+00 0.0000000e+00 
-9.8129422e-04 0.0000000e+00 1.2591883e-02 
-9.8129422e-04 0.0000000e+00 1.2591883e-02 
0.0000000e+00 0.0000000e+00 0.0000000e+00 
0.0000000e+00 0.0000000e+00 0.0000000e+00 
-1.0083023e-03 0.0000000e+00 1.3074353e-02 
-1.0083023e-03 0.0000000e+00 1.3074353e-02 
0.0000000e+00 0.0000000e+00 0.0000000e+00 
0.0000000e+00 0.0000000e+00 0.0000000e+00 
-1.0338542e-03 0.0000000e+00 1.3549609e-02 
-1.0338542e-03 0.0000000e+00 1.3549609e-02 
0.0000000e+00 0.0000000e+00 0.0000000e+00 
0.0000000e+00 0.0000000e+00 0.0000000e+00 
-1.0579856e-03 0.0000000e+00 1.4017741e-02 
-1.0579856e-03 0.0000000e+00 1.4017741e-02 
0.0000000e+00 0.0000000e+00 0.0000000e+00 
0.0000000e+00 0.0000000e+00 0.0000000e+00 
-1.0806987e-03 0.0000000e+00 1.4478676e-02 
-1.0806987e-03 0.0000000e+00 1.4478676e-02 
0.0000000e+00 0.0000000e+00 0.0000000e+00 
0.0000000e+00 0.0000000e+00 0.0000000e+00 
-1.1019726e-03 0.0000000e+00 1.4932180e-02 
0.0000000e+00 0.0000000e+00 0.0000000e+00 
-1.1019726e-03 0.0000000e+00 1.4932180e-02 
0.0000000e+00 0.0000000e+00 0.0000000e+00 
-4.5739806e-05 0.0000000e+00 8.5344360e-04 
-1.1218208e-03 0.0000000e+00 1.5378190e-02 
-4.5739806e-05 0.0000000e+00 8.5344360e-04 
-1.1218208e-03 0.0000000e+00 1.5378190e-02 
-8.7165193e-05 0.0000000e+00 1.7453808e-03 
-1.1402829e-03 0.0000000e+00 1.5816820e-02 
-8.7165193e-05 0.0000000e+00 1.7453808e-03 
-1.1402829e-03 0.0000000e+00 1.5816820e-02 
-1.2597153e-04 0.0000000e+00 2.6437086e-03 
-1.2597153e-04 0.0000000e+00 2.6437086e-03 
-1.1573696e-03 0.0000000e+00 1.6248026e-02 
-1.1573696e-03 0.0000000e+00 1.6248026e-02 
-1.6300309e-04 0.0000000e+00 3.5356731e-03 
-1.6300309e-04 0.0000000e+00 3.5356731e-03 
-1.1730604e-03 0.0000000e+00 1.6671560e-02 
-1.1730604e-03 0.0000000e+00 1.6671560e-02 
-1.9824210e-04 0.0000000e+00 4.4211688e-03 
-1.9824210e-04 0.0000000e+00 4.4211688e-03 
-1.1873593e-03 0.0000000e+00 1.7087302e-02 
-1.1873593e-03 0.0000000e+00 1.7087302e-02 
-2.3156365e-04 0.0000000e+00 5.2997061e-03 
-2.3156365e-04 0.0000000e+00 5.2997061e-03 
-1.2002998e-03 0.0000000e+00 1.7495323e-02 
-1.2002998e-03 0.0000000e+00 1.7495323e-02 
-2.6277696e-04 0.0000000e+00 6.1704968e-03 
-2.6277696e-04 0.0000000e+00 6.1704968e-03 
-1.2118950e-03 0.0000000e+00 1.7895577e-02 
-1.2118950e-03 0.0000000e+00 1.7895577e-02 
-2.9174210e-04 0.0000000e+00 7.0329243e-03 
-2.9174210e-04 0.0000000e+00 7.0329243e-03 
-1.2221391e-03 0.0000000e+00 1.8287876e-02 
-3.1835675e-04 0.0000000e+00 7.8864753e-03 
-1.2221391e-03 0.0000000e+00 1.8287876e-02 
-3.1835675e-04 0.0000000e+00 7.8864753e-03 
-3.4253322e-04 0.0000000e+00 8.7306804e-03 
-1.2310468e-03 0.0000000e+00 1.8672140e-02 
-3.4253322e-04 0.0000000e+00 8.7306804e-03 
-1.2310468e-03 0.0000000e+00 1.8672140e-02 
-3.6421588e-04 0.0000000e+00 9.5651668e-03 
-1.2386533e-03 0.0000000e+00 1.9048445e-02 
-3.6421588e-04 0.0000000e+00 9.5651668e-03 
-1.2386533e-03 0.0000000e+00 1.9048445e-02 
-3.8337931e-04 0.0000000e+00 1.0389662e-02 
-3.8337931e-04 0.0000000e+00 1.0389662e-02 
-1.2449790e-03 0.0000000e+00 1.9416777e-02 
-1.2449790e-03 0.0000000e+00 1.9416777e-02 
-4.0001948e-04 0.0000000e+00 1.1203990e-02 
-4.0001948e-04 0.0000000e+00 1.1203990e-02 
-1.2500214e-03 0.0000000e+00 1.9776952e-02 
-1.2500214e-03 0.0000000e+00 1.9776952e-02 
-4.1411038e-04 0.0000000e+00 1.2007861e-02 
-4.1411038e-04 0.0000000e+00 1.2007861e-02 
-1.2537917e-03 0.0000000e+00 2.0128854e-02 
-1.2537917e-03 0.0000000e+00 2.0128854e-02 
-4.2561289e-04 0.0000000e+00 1.2800916e-02 
-4.2561289e-04 0.0000000e+00 1.2800916e-02 
-1.2563210e-03 0.0000000e+00 2.0472531e-02 
-1.2563210e-03 0.0000000e+00 2.0472531e-02 
-4.3451927e-04 0.0000000e+00 1.3582895e-02 
-4.3451927e-04 0.0000000e+00 1.3582895e-02 
-1.2576302e-03 0.0000000e+00 2.0807957e-02 
-1.2576302e-03 0.0000000e+00 2.0807957e-02 
-4.4083244e-04 0.0000000e+00 1.4353591e-02 
-4.4083244e-04 0.0000000e+00 1.4353591e-02 
-1.2577290e-03 0.0000000e+00 2.1134997e-02 
-1.2577290e-03 0.0000000e+00 2.1134997e-02 
-4.4454609e-04 0.0000000e+00 1.5112739e-02 
-4.4454609e-04 0.0000000e+00 1.5112739e-02 
-1.2566389e-03 0.0000000e+00 2.1453596e-02 
-1.2566389e-03 0.0000000e+00 2.1453596e-02 
-4.4566115e-04 0.0000000e+00 1.5860079e-02 
-4.4566115e-04 0.0000000e+00 1.5860079e-02 
-1.2543918e-03 0.0000000e+00 2.1763796e-02 
-4.4420011e-04 0.0000000e+00 1.6595444e-02 
-1.2543918e-03 0.0000000e+00 2.1763796e-02 
-4.4420011e-04 0.0000000e+00 1.6595444e-02 
-1.2510110e-03 0.0000000e+00 2.2065576e-02 
-4.4019972e-04 0.0000000e+00 1.7318724e-02 
-1.2510110e-03 0.0000000e+00 2.2065576e-02 
-4.4019972e-04 0.0000000e+00 1.7318724e-02 
-4.3368157e-04 0.0000000e+00 1.8029742e-02 
-1.2465085e-03 0.0000000e+00 2.2358809e-02 
-4.3368157e-04 0.0000000e+00 1.8029742e-02 
-1.2465085e-03 0.0000000e+00 2.2358809e-02 
-4.2465847e-04 0.0000000e+00 1.8728240e-02 
-4.2465847e-04 0.0000000e+00 1.8728240e-02 
-1.2409047e-03 0.0000000e+00 2.2643417e-02 
-1.2409047e-03 0.0000000e+00 2.2643417e-02 
-4.1315935e-04 0.0000000e+00 1.9414033e-02 
-4.1315935e-04 0.0000000e+00 1.9414033e-02 
-1.2342289e-03 0.0000000e+00 2.2919416e-02 
-1.2342289e-03 0.0000000e+00 2.2919416e-02 
-3.9921880e-04 0.0000000e+00 2.0086951e-02 
-3.9921880e-04 0.0000000e+00 2.0086951e-02 
-1.2265037e-03 0.0000000e+00 2.3186768e-02 
-1.2265037e-03 0.0000000e+00 2.3186768e-02 
-3.8287020e-04 0.0000000e+00 2.0746808e-02 
-3.8287020e-04 0.0000000e+00 2.0746808e-02 
-1.2177490e-03 0.0000000e+00 2.3445378e-02 
-1.2177490e-03 0.0000000e+00 2.3445378e-02 
-3.6415462e-04 0.0000000e+00 2.1393439e-02 
-3.6415462e-04 0.0000000e+00 2.1393439e-02 
-1.2079923e-03 0.0000000e+00 2.3695216e-02 
-1.2079923e-03 0.0000000e+00 2.3695216e-02 
-3.4311979e-04 0.0000000e+00 2.2026705e-02 
-3.4311979e-04 0.0000000e+00 2.2026705e-02 
-1.1972642e-03 0.0000000e+00 2.3936301e-02 
-1.1972642e-03 0.0000000e+00 2.3936301e-02 
-3.1981913e-04 0.0000000e+00 2.2646499e-02 
-3.1981913e-04 0.0000000e+00 2.2646499e-02 
-1.1855899e-03 0.0000000e+00 2.4168598e-02 
-1.1855899e-03 0.0000000e+00 2.4168598e-02 
-2.9430449e-04 0.0000000e+00 2.3252686e-02 
-2.9430449e-04 0.0000000e+00 2.3252686e-02 
-1.1729911e-03 0.0000000e+00 2.4392020e-02 
-1.1729911e-03 0.0000000e+00 2.4392020e-02 
-2.6662575e-04 0.0000000e+00 2.3845110e-02 
-2.6662575e-04 0.0000000e+00 2.3845110e-02 
-1.1594945e-03 0.0000000e+00 2.4606526e-02 
-1.1594945e-03 0.0000000e+00 2.4606526e-02 
-2.3683537e-04 0.0000000e+00 2.4423614e-02 
-2.3683537e-04 0.0000000e+00 2.4423614e-02 
-1.1451297e-03 0.0000000e+00 2.4812111e-02 
-1.1451297e-03 0.0000000e+00 2.4812111e-02 
-2.0498696e-04 0.0000000e+00 2.4988022e-02 
-2.0498696e-04 0.0000000e+00 2.4988022e-02 
-1.1299235e-03 0.0000000e+00 2.5008739e-02 
-1.1299235e-03 0.0000000e+00 2.5008739e-02 
-1.7114239e-04 0.0000000e+00 2.5538204e-02 
-1.7114239e-04 0.0000000e+00 2.5538204e-02 
-1.1139026e-03 0.0000000e+00 2.5196358e-02 
-1.3537119e-04 0.0000000e+00 2.6074078e-02 
-1.1139026e-03 0.0000000e+00 2.5196358e-02 
-1.3537119e-04 0.0000000e+00 2.6074078e-02 
-9.7739844e-05 0.0000000e+00 2.6595530e-02 
-1.0970977e-03 0.0000000e+00 2.5374948e-02 
-9.7739844e-05 0.0000000e+00 2.6595530e-02 
-1.0970977e-03 0.0000000e+00 2.5374948e-02 
-5.8316082e-05 0.0000000e+00 2.7102432e-02 
-1.0795397e-03 0.0000000e+00 2.5544509e-02 
-5.8316082e-05 0.0000000e+00 2.7102432e-02 
-1.0795397e-03 0.0000000e+00 2.5544509e-02 
-1.7174043e-05 0.0000000e+00 2.7594697e-02 
-1.7174043e-05 0.0000000e+00 2.7594697e-02 
-1.0612576e-03 0.0000000e+00 2.5705022e-02 
-1.0612576e-03 0.0000000e+00 2.5705022e-02 
2.5609210e-05 0.0000000e+00 2.8072265e-02 
2.5609210e-05 0.0000000e+00 2.8072265e-02 
-1.0422801e-03 0.0000000e+00 2.5856444e-02 
-1.0422801e-03 0.0000000e+00 2.5856444e-02 
6.9961265e-05 0.0000000e+00 2.8535019e-02 
6.9961265e-05 0.0000000e+00 2.8535019e-02 
-1.0226374e-03 0.0000000e+00 2.5998755e-02 
-1.0226374e-03 0.0000000e+00 2.5998755e-02 
1.1581069e-04 0.0000000e+00 2.8982789e-02 
1.1581069e-04 0.0000000e+00 2.8982789e-02 
-1.0023606e-03 0.0000000e+00 2.6131945e-02 
-1.0023606e-03 0.0000000e+00 2.6131945e-02 
1.6307607e-04 0.0000000e+00 2.9415484e-02 
1.6307607e-04 0.0000000e+00 2.9415484e-02 
-9.8148011e-04 0.0000000e+00 2.6255994e-02 
-9.8148011e-04 0.0000000e+00 2.6255994e-02 
2.1167024e-04 0.0000000e+00 2.9833095e-02 
2.1167024e-04 0.0000000e+00 2.9833095e-02 
-9.6002693e-04 0.0000000e+00 2.6370886e-02 
-9.6002693e-04 0.0000000e+00 2.6370886e-02 
2.6151251e-04 0.0000000e+00 3.0235526e-02 
2.6151251e-04 0.0000000e+00 3.0235526e-02 
-9.3803330e-04 0.0000000e+00 2.6476616e-02 
-9.3803330e-04 0.0000000e+00 2.6476616e-02 
3.1252186e-04 0.0000000e+00 3.0622614e-02 
3.1252186e-04 0.0000000e+00 3.0622614e-02 
-9.1553147e-04 0.0000000e+00 2.6573184e-02 
-9.1553147e-04 0.0000000e+00 2.6573184e-02 
3.6460481e-04 0.0000000e+00 3.0994319e-02 
3.6460481e-04 0.0000000e+00 3.0994319e-02 
-8.9255347e-04 0.0000000e+00 2.6660593e-02 
-8.9255347e-04 0.0000000e+00 2.6660593e-02 
4.1766477e-04 0.0000000e+00 3.1350739e-02 
4.1766477e-04 0.0000000e+00 3.1350739e-02 
-8.6913153e-04 0.0000000e+00 2.6738846e-02 
-8.6913153e-04 0.0000000e+00 2.6738846e-02 
4.7161363e-04 0.0000000e+00 3.1691841e-02 
4.7161363e-04 0.0000000e+00 3.1691841e-02 
-8.4529779e-04 0.0000000e+00 2.6807947e-02 
-8.4529779e-04 0.0000000e+00 2.6807947e-02 
5.2635899e-04 0.0000000e+00 3.2017492e-02 
5.2635899e-04 0.0000000e+00 3.2017492e-02 
-8.2108443e-04 0.0000000e+00 2.6867900e-02 
-8.2108443e-04 0.0000000e+00 2.6867900e-02 
5.8179680e-04 0.0000000e+00 3.2327794e-02 
5.8179680e-04 0.0000000e+00 3.2327794e-02 
-7.9652433e-04 0.0000000e+00 2.6918722e-02 
-7.9652433e-04 0.0000000e+00 2.6918722e-02 
6.3755329e-04 0.0000000e+00 3.2621635e-02 
6.3755329e-04 0.0000000e+00 3.2621635e-02 
-7.7157593e-04 0.0000000e+00 2.6960559e-02 
-7.7157593e-04 0.0000000e+00 2.6960559e-02 
7.0511234e-04 0.0000000e+00 3.2954767e-02 
7.0511234e-04 0.0000000e+00 3.2954767e-02 
-7.4126624e-04 0.0000000e+00 2.6998713e-02 
-7.4126624e-04 0.0000000e+00 2.6998713e-02 
7.8692799e-04 0.0000000e+00 3.3326623e-02 
7.8692799e-04 0.0000000e+00 3.3326623e-02 
-7.0443418e-04 0.0000000e+00 2.7027194e-02 
-7.0443418e-04 0.0000000e+00 2.7027194e-02 
8.8585307e-04 0.0000000e+00 3.3733004e-02 
8.8585307e-04 0.0000000e+00 3.3733004e-02 
-6.6015505e-04 0.0000000e+00 2.7036706e-02 
-6.6015505e-04 0.0000000e+00 2.7036706e-02 
9.9054448e-04 0.0000000e+00 3.4114257e-02 
9.9054448e-04 0.0000000e+00 3.4114257e-02 
-6.1544697e-04 0.0000000e+00 2.7019878e-02 
-6.1544697e-04 0.0000000e+00 2.7019878e-02 
1.0952068e-03 0.0000000e+00 3.4446948e-02 
1.0952068e-03 0.0000000e+00 3.4446948e-02 
-5.7046654e-04 0.0000000e+00 2.6976651e-02 
-5.7046654e-04 0.0000000e+00 2.6976651e-02 
1.1993323e-03 0.0000000e+00 3.4730849e-02 
1.1993323e-03 0.0000000e+00 3.4730849e-02 
-5.2536664e-04 0.0000000e+00 2.6907196e-02 
-5.2536664e-04 0.0000000e+00 2.6907196e-02 
1.3024087e-03 0.0000000e+00 3.4965989e-02 
1.3024087e-03 0.0000000e+00 3.4965989e-02 
-4.8029805e-04 0.0000000e+00 2.6811628e-02 
-4.8029805e-04 0.0000000e+00 2.6811628e-02 
1.4039278e-03 0.0000000e+00 3.5152475e-02 
1.4039278e-03 0.0000000e+00 3.5152475e-02 
-4.3541682e-04 0.0000000e+00 2.6689990e-02 
-4.3541682e-04 0.0000000e+00 2.6689990e-02 
1.5033900e-03 0.0000000e+00 3.5290568e-02 
1.5033900e-03 0.0000000e+00 3.5290568e-02 
-3.9086438e-04 0.0000000e+00 2.6542650e-02 
-3.9086438e-04 0.0000000e+00 2.6542650e-02 
1.6003103e-03 0.0000000e+00 3.5380636e-02 
1.6003103e-03 0.0000000e+00 3.5380636e-02 
-3.4678012e-04 0.0000000e+00 2.6369811e-02 