# vtk DataFile Version 4.0
vtk output
ASCII
DATASET UNSTRUCTURED_GRID
POINTS 824 float
-6.4148600e-05 1.0000000e-02 -4.4525366e-03 
-1.0680180e-04 1.0000000e-02 -2.8088474e-03 
3.4513260e-04 1.0000000e-02 -6.0450544e-03 
1.3803532e-03 1.0000000e-02 -7.3230534e-03 
6.5829700e-05 1.0000000e-02 -1.1736922e-03 
2.7142144e-03 1.0000000e-02 -8.2851896e-03 
5.0392030e-04 1.0000000e-02 6.5784910e-04 
4.1780764e-03 1.0000000e-02 -9.0342357e-03 
1.1628646e-03 1.0000000e-02 2.4220088e-03 
5.7070961e-03 1.0000000e-02 -9.6390187e-03 
2.0046218e-03 1.0000000e-02 4.1066196e-03 
7.2731595e-03 1.0000000e-02 -1.0140047e-02 
-6.4148600e-05 0.0000000e+00 -4.4525366e-03 
-1.0680180e-04 0.0000000e+00 -2.8088474e-03 
3.4513260e-04 0.0000000e+00 -6.0450544e-03 
1.3803532e-03 0.0000000e+00 -7.3230534e-03 
6.5829700e-05 0.0000000e+00 -1.1736922e-03 
2.9952540e-03 1.0000000e-02 5.7082181e-03 
8.8622628e-03 1.0000000e-02 -1.0562311e-02 
2.7142144e-03 0.0000000e+00 -8.2851896e-03 
5.0392030e-04 0.0000000e+00 6.5784910e-04 
4.1780764e-03 0.0000000e+00 -9.0342357e-03 
1.1628646e-03 0.0000000e+00 2.4220088e-03 
1.0466628e-02 1.0000000e-02 -1.0922252e-02 
4.1067238e-03 1.0000000e-02 7.2284501e-03 
5.7070961e-03 0.0000000e+00 -9.6390187e-03 
2.0046218e-03 0.0000000e+00 4.1066196e-03 
7.2731595e-03 0.0000000e+00 -1.0140047e-02 
1.2081579e-02 1.0000000e-02 -1.1231240e-02 
5.3166988e-03 1.0000000e-02 8.6715129e-03 
2.9952540e-03 0.0000000e+00 5.7082181e-03 
8.8622628e-03 0.0000000e+00 -1.0562311e-02 
1.3704120e-02 1.0000000e-02 -1.1497501e-02 
1.0466628e-02 0.0000000e+00 -1.0922252e-02 
4.1067238e-03 0.0000000e+00 7.2284501e-03 
6.6076374e-03 1.0000000e-02 1.0042624e-02 
1.5332244e-02 1.0000000e-02 -1.1727173e-02 
1.2081579e-02 0.0000000e+00 -1.1231240e-02 
5.3166988e-03 0.0000000e+00 8.6715129e-03 
7.9658343e-03 1.0000000e-02 1.1347144e-02 
1.3704120e-02 0.0000000e+00 -1.1497501e-02 
1.6964543e-02 1.0000000e-02 -1.1925002e-02 
6.6076374e-03 0.0000000e+00 1.0042624e-02 
9.3804686e-03 1.0000000e-02 1.2590236e-02 
1.5332244e-02 0.0000000e+00 -1.1727173e-02 
1.8600004e-02 1.0000000e-02 -1.2094716e-02 
7.9658343e-03 0.0000000e+00 1.1347144e-02 
1.6964543e-02 0.0000000e+00 -1.1925002e-02 
1.0843002e-02 1.0000000e-02 1.3776601e-02 
2.0237876e-02 1.0000000e-02 -1.2239318e-02 
9.3804686e-03 0.0000000e+00 1.2590236e-02 
1.8600004e-02 0.0000000e+00 -1.2094716e-02 
1.2346566e-02 1.0000000e-02 1.4910517e-02 
2.1877591e-02 1.0000000e-02 -1.2361246e-02 
1.0843002e-02 0.0000000e+00 1.3776601e-02 
2.0237876e-02 0.0000000e+00 -1.2239318e-02 
1.3885623e-02 1.0000000e-02 1.5995768e-02 
2.3518711e-02 1.0000000e-02 -1.2462540e-02 
1.2346566e-02 0.0000000e+00 1.4910517e-02 
2.1877591e-02 0.0000000e+00 -1.2361246e-02 
2.5160890e-02 1.0000000e-02 -1.2544903e-02 
1.5455654e-02 1.0000000e-02 1.7035707e-02 
1.3885623e-02 0.0000000e+00 1.5995768e-02 
2.3518711e-02 0.0000000e+00 -1.2462540e-02 
2.6803852e-02 1.0000000e-02 -1.2609772e-02 
1.7052912e-02 1.0000000e-02 1.8033321e-02 
2.5160890e-02 0.0000000e+00 -1.2544903e-02 
1.5455654e-02 0.0000000e+00 1.7035707e-02 
2.8447376e-02 1.0000000e-02 -1.2658389e-02 
2.6803852e-02 0.0000000e+00 -1.2609772e-02 
1.7052912e-02 0.0000000e+00 1.8033321e-02 
1.8674284e-02 1.0000000e-02 1.8991246e-02 
3.0091279e-02 1.0000000e-02 -1.2691814e-02 
2.8447376e-02 0.0000000e+00 -1.2658389e-02 
1.8674284e-02 0.0000000e+00 1.8991246e-02 
2.0317149e-02 1.0000000e-02 1.9911822e-02 
3.0091279e-02 0.0000000e+00 -1.2691814e-02 
3.1735410e-02 1.0000000e-02 -1.2710971e-02 
2.0317149e-02 0.0000000e+00 1.9911822e-02 
2.1979295e-02 1.0000000e-02 2.0797113e-02 
3.1735410e-02 0.0000000e+00 -1.2710971e-02 
3.3379643e-02 1.0000000e-02 -1.2716676e-02 
2.1979295e-02 0.0000000e+00 2.0797113e-02 
2.3658832e-02 1.0000000e-02 2.1648949e-02 
3.3379643e-02 0.0000000e+00 -1.2716676e-02 
3.5023871e-02 1.0000000e-02 -1.2709629e-02 
2.3658832e-02 0.0000000e+00 2.1648949e-02 
2.5354100e-02 1.0000000e-02 2.2469029e-02 
3.5023871e-02 0.0000000e+00 -1.2709629e-02 
3.6668001e-02 1.0000000e-02 -1.2690457e-02 
2.5354100e-02 0.0000000e+00 2.2469029e-02 
2.7063712e-02 1.0000000e-02 2.3258772e-02 
3.6668001e-02 0.0000000e+00 -1.2690457e-02 
3.8312016e-02 1.0000000e-02 -1.2663038e-02 
2.7063712e-02 0.0000000e+00 2.3258772e-02 
3.8312016e-02 0.0000000e+00 -1.2663038e-02 
2.8786417e-02 1.0000000e-02 2.4019532e-02 
3.9956032e-02 1.0000000e-02 -1.2635752e-02 
2.8786417e-02 0.0000000e+00 2.4019532e-02 
3.9956032e-02 0.0000000e+00 -1.2635752e-02 
3.0521135e-02 1.0000000e-02 2.4752486e-02 
4.1600048e-02 1.0000000e-02 -1.2608467e-02 
3.0521135e-02 0.0000000e+00 2.4752486e-02 
4.1600048e-02 0.0000000e+00 -1.2608467e-02 
3.2266919e-02 1.0000000e-02 2.5458676e-02 
4.3299814e-02 1.0000000e-02 -1.2580255e-02 
3.2266919e-02 0.0000000e+00 2.5458676e-02 
4.3299814e-02 0.0000000e+00 -1.2580255e-02 
3.4022902e-02 1.0000000e-02 2.6139111e-02 
4.5339533e-02 1.0000000e-02 -1.2546402e-02 
3.4022902e-02 0.0000000e+00 2.6139111e-02 
4.5339533e-02 0.0000000e+00 -1.2546402e-02 
3.5788340e-02 1.0000000e-02 2.6794623e-02 
4.7787196e-02 1.0000000e-02 -1.2505778e-02 
3.5788340e-02 0.0000000e+00 2.6794623e-02 
3.7562554e-02 1.0000000e-02 2.7425996e-02 
4.7787196e-02 0.0000000e+00 -1.2505778e-02 
3.7562554e-02 0.0000000e+00 2.7425996e-02 
3.9344928e-02 1.0000000e-02 2.8033950e-02 
5.0379113e-02 1.0000000e-02 -1.2462760e-02 
3.9344928e-02 0.0000000e+00 2.8033950e-02 
5.0379113e-02 0.0000000e+00 -1.2462760e-02 
4.1134916e-02 1.0000000e-02 2.8619109e-02 
5.2971029e-02 1.0000000e-02 -1.2419741e-02 
4.1134916e-02 0.0000000e+00 2.8619109e-02 
5.2971029e-02 0.0000000e+00 -1.2419741e-02 
4.2932026e-02 1.0000000e-02 2.9182016e-02 
4.2932026e-02 0.0000000e+00 2.9182016e-02 
5.5562946e-02 1.0000000e-02 -1.2376723e-02 
4.5339682e-02 1.0000000e-02 2.9899231e-02 
5.5562946e-02 0.0000000e+00 -1.2376723e-02 
4.5339682e-02 0.0000000e+00 2.9899231e-02 
5.8154863e-02 1.0000000e-02 -1.2333705e-02 
4.7758221e-02 1.0000000e-02 3.0578844e-02 
5.8154863e-02 0.0000000e+00 -1.2333705e-02 
4.7758221e-02 0.0000000e+00 3.0578844e-02 
6.0746779e-02 1.0000000e-02 -1.2290686e-02 
5.0186760e-02 1.0000000e-02 3.1221807e-02 
6.0746779e-02 0.0000000e+00 -1.2290686e-02 
5.0186760e-02 0.0000000e+00 3.1221807e-02 
6.3338696e-02 1.0000000e-02 -1.2247668e-02 
5.2624513e-02 1.0000000e-02 3.1828903e-02 
6.3338696e-02 0.0000000e+00 -1.2247668e-02 
5.2624513e-02 0.0000000e+00 3.1828903e-02 
5.5070762e-02 1.0000000e-02 3.2400804e-02 
6.5930613e-02 1.0000000e-02 -1.2204650e-02 
5.5070762e-02 0.0000000e+00 3.2400804e-02 
6.5930613e-02 0.0000000e+00 -1.2204650e-02 
5.7524847e-02 1.0000000e-02 3.2938082e-02 
6.8522529e-02 1.0000000e-02 -1.2161631e-02 
5.7524847e-02 0.0000000e+00 3.2938082e-02 
6.8522529e-02 0.0000000e+00 -1.2161631e-02 
5.9986169e-02 1.0000000e-02 3.3441170e-02 
7.1114446e-02 1.0000000e-02 -1.2118613e-02 
5.9986169e-02 0.0000000e+00 3.3441170e-02 
7.1114446e-02 0.0000000e+00 -1.2118613e-02 
6.2454163e-02 1.0000000e-02 3.3910436e-02 
6.2454163e-02 0.0000000e+00 3.3910436e-02 
7.3706362e-02 1.0000000e-02 -1.2075595e-02 
7.3706362e-02 0.0000000e+00 -1.2075595e-02 
6.4928303e-02 1.0000000e-02 3.4346139e-02 
6.4928303e-02 0.0000000e+00 3.4346139e-02 
7.6298279e-02 1.0000000e-02 -1.2032577e-02 
7.6298279e-02 0.0000000e+00 -1.2032577e-02 
6.7408092e-02 1.0000000e-02 3.4748446e-02 
6.7408092e-02 0.0000000e+00 3.4748446e-02 
7.8890196e-02 1.0000000e-02 -1.1989558e-02 
7.8890196e-02 0.0000000e+00 -1.1989558e-02 
6.9893057e-02 1.0000000e-02 3.5117436e-02 
6.9893057e-02 0.0000000e+00 3.5117436e-02 
8.1482112e-02 1.0000000e-02 -1.1946540e-02 
8.1482112e-02 0.0000000e+00 -1.1946540e-02 
7.2382742e-02 1.0000000e-02 3.5453098e-02 
7.2382742e-02 0.0000000e+00 3.5453098e-02 
8.4074029e-02 1.0000000e-02 -1.1903522e-02 
7.4876707e-02 1.0000000e-02 3.5755332e-02 
8.4074029e-02 0.0000000e+00 -1.1903522e-02 
7.4876707e-02 0.0000000e+00 3.5755332e-02 
8.6665946e-02 1.0000000e-02 -1.1860503e-02 
7.7374516e-02 1.0000000e-02 3.6023948e-02 
8.6665946e-02 0.0000000e+00 -1.1860503e-02 
7.7374516e-02 0.0000000e+00 3.6023948e-02 
8.9257862e-02 1.0000000e-02 -1.1817485e-02 
7.9875738e-02 1.0000000e-02 3.6258665e-02 
8.9257862e-02 0.0000000e+00 -1.1817485e-02 
7.9875738e-02 0.0000000e+00 3.6258665e-02 
8.2379940e-02 1.0000000e-02 3.6459105e-02 
9.1849779e-02 1.0000000e-02 -1.1774467e-02 
8.2379940e-02 0.0000000e+00 3.6459105e-02 
9.1849779e-02 0.0000000e+00 -1.1774467e-02 
8.4886681e-02 1.0000000e-02 3.6624786e-02 
9.4441696e-02 1.0000000e-02 -1.1731448e-02 
8.4886681e-02 0.0000000e+00 3.6624786e-02 
9.4441696e-02 0.0000000e+00 -1.1731448e-02 
8.7395510e-02 1.0000000e-02 3.6755108e-02 
8.7395510e-02 0.0000000e+00 3.6755108e-02 
9.7033612e-02 1.0000000e-02 -1.1688430e-02 
9.7033612e-02 0.0000000e+00 -1.1688430e-02 
8.9905951e-02 1.0000000e-02 3.6849401e-02 
8.9905951e-02 0.0000000e+00 3.6849401e-02 
9.9625529e-02 1.0000000e-02 -1.1645412e-02 
9.9625529e-02 0.0000000e+00 -1.1645412e-02 
9.2417505e-02 1.0000000e-02 3.6906832e-02 
9.2417505e-02 0.0000000e+00 3.6906832e-02 
1.0221745e-01 1.0000000e-02 -1.1602393e-02 
1.0221745e-01 0.0000000e+00 -1.1602393e-02 
9.4929640e-02 1.0000000e-02 3.6926425e-02 
9.4929640e-02 0.0000000e+00 3.6926425e-02 
1.0480936e-01 1.0000000e-02 -1.1559375e-02 
1.0480936e-01 0.0000000e+00 -1.1559375e-02 
9.7441776e-02 1.0000000e-02 3.6907077e-02 
9.7441776e-02 0.0000000e+00 3.6907077e-02 
1.0740128e-01 1.0000000e-02 -1.1516357e-02 
1.0740128e-01 0.0000000e+00 -1.1516357e-02 
9.9953281e-02 1.0000000e-02 3.6847529e-02 
9.9953281e-02 0.0000000e+00 3.6847529e-02 
1.0999320e-01 1.0000000e-02 -1.1473339e-02 
1.0246345e-01 1.0000000e-02 3.6746314e-02 
1.0999320e-01 0.0000000e+00 -1.1473339e-02 
1.0246345e-01 0.0000000e+00 3.6746314e-02 
1.0497150e-01 1.0000000e-02 3.6601738e-02 
1.1258511e-01 1.0000000e-02 -1.1430320e-02 
1.0497150e-01 0.0000000e+00 3.6601738e-02 
1.1258511e-01 0.0000000e+00 -1.1430320e-02 
1.0747666e-01 1.0000000e-02 3.6413638e-02 
1.1517703e-01 1.0000000e-02 -1.1387302e-02 
1.0747666e-01 0.0000000e+00 3.6413638e-02 
[...]
POINT_DATA 824
FIELD FieldData 2
DISPLACEMENT 3 824  float
0.0000000e+00 0.0000000e+00 0.0000000e+00 
0.0000000e+00 0.0000000e+00 0.0000000e+00 
0.0000000e+00 0.0000000e+00 0.0000000e+00 
0.0000000e+00 0.0000000e+00 0.0000000e+00 
0.0000000e+00 0.0000000e+00 0.0000000e+00 
0.0000000e+00 0.0000000e+00 0.0000000e+00 
0.0000000e+00 0.0000000e+00 0.0000000e+00 
0.0000000e+00 0.0000000e+00 0.0000000e+00 
0.0000000e+00 0.0000000e+00 0.0000000e+00 
0.0000000e+00 0.0000000e+00 0.0000000e+00 
0.0000000e+00 0.0000000e+00 0.0000000e+00 
0.0000000e+00 0.0000000e+00 0.0000000e+00 
0.0000000e+00 0.0000000e+00 0.0000000e+00 
0.0000000e+00 0.0000000e+00 0.0000000e+00 
0.0000000e+00 0.0000000e+00 0.0000000e+00 
0.0000000e+00 0.0000000e+00 0.0000000e+00 
0.0000000e+00 0.0000000e+00 0.0000000e+00 
0.0000000e+00 0.0000000e+00 0.0000000e+00 
0.0000000e+00 0.0000000e+00 0.0000000e+00 
0.0000000e+00 0.0000000e+00 0.0000000e+00 
0.0000000e+00 0.0000000e+00 0.0000000e+00 
0.0000000e+00 0.0000000e+00 0.0000000e+00 
0.0000000e+00 0.0000000e+00 0.0000000e+00 
0.0000000e+00 0.0000000e+00 0.0000000e+00 
0.0000000e+00 0.0000000e+00 0.0000000e+00 
0.0000000e+00 0.0000000e+00 0.0000000e+00 
0.0000000e+00 0.0000000e+00 0.0000000e+00 
0.0000000e+00 0.0000000e+00 0.0000000e+00 
0.0000000e+00 0.0000000e+00 0.0000000e+00 
0.0000000e+00 0.0000000e+00 0.0000000e+00 
0.0000000e+00 0.0000000e+00 0.0000000e+00 
0.0000000e+00 0.0000000e+00 0.0000000e+00 
0.0000000e+00 0.0000000e+00 0.0000000e+00 
0.0000000e+00 0.0000000e+00 0.0000000e+00 
0.0000000e+00 0.0000000e+00 0.0000000e+00 
0.0000000e+00 0.0000000e+00 0.0000000e+00 
0.0000000e+00 0.0000000e+00 0.0000000e+00 
0.0000000e+00 0.0000000e+00 0.0000000e+00 
0.0000000e+00 0.0000000e+00 0.0000000e+00 
0.0000000e+00 0.0000000e+00 0.0000000e+00 
0.0000000e+00 0.0000000e+00 0.0000000e+00 
0.0000000e+00 0.0000000e+00 0.0000000e+00 
0.0000000e+00 0.0000000e+00 0.0000000e+00 
0.0000000e+00 0.0000000e+00 0.0000000e+00 
0.0000000e+00 0.0000000e+00 0.0000000e+00 
0.0000000e+00 0.0000000e+00 0.0000000e+00 
0.0000000e+00 0.0000000e+00 0.0000000e+00 
0.0000000e+00 0.0000000e+00 0.0000000e+00 
0.0000000e+00 0.0000000e+00 0.0000000e+00 
0.0000000e+00 0.0000000e+00 0.0000000e+00 
0.0000000e+00 0.0000000e+00 0.0000000e+00 
0.0000000e+00 0.0000000e+00 0.0000000e+00 
0.0000000e+00 0.0000000e+00 0.0000000e+00 
0.0000000e+00 0.0000000e+00 0.0000000e+00 
0.0000000e+00 0.0000000e+00 0.0000000e+00 
0.0000000e+00 0.0000000e+00 0.0000000e+00 
0.0000000e+00 0.0000000e+00 0.0000000e+00 
0.0000000e+00 0.0000000e+00 0.0000000e+00 
0.0000000e+00 0.0000000e+00 0.0000000e+00 
0.0000000e+00 0.0000000e+00 0.0000000e+00 
0.0000000e+00 0.0000000e+00 0.0000000e+00 
0.0000000e+00 0.0000000e+00 0.0000000e+00 
0.0000000e+00 0.0000000e+00 0.0000000e+00 
0.0000000e+00 0.0000000e+00 0.0000000e+00 
0.0000000e+00 0.0000000e+00 0.0000000e+00 
0.0000000e+00 0.0000000e+00 0.0000000e+00 
0.0000000e+00 0.0000000e+00 0.0000000e+00 
0.0000000e+00 0.0000000e+00 0.0000000e+00 
0.0000000e+00 0.0000000e+00 0.0000000e+00 
0.0000000e+00 0.0000000e+00 0.0000000e+00 
0.0000000e+00 0.0000000e+00 0.0000000e+00 
0.0000000e+00 0.0000000e+00 0.0000000e+00 
0.0000000e+00 0.0000000e+00 0.0000000e+00 
0.0000000e+00 0.0000000e+00 0.0000000e+00 
0.0000000e+00 0.0000000e+00 0.0000000e+00 
0.0000000e+00 0.0000000e+00 0.0000000e+00 
0.0000000e+00 0.0000000e+00 0.0000000e+00 
0.0000000e+00 0.0000000e+00 0.0000000e+00 
0.0000000e+00 0.0000000e+00 0.0000000e+00 
0.0000000e+00 0.0000000e+00 0.0000000e+00 
0.0000000e+00 0.0000000e+00 0.0000000e+00 
0.0000000e+00 0.0000000e+00 0.0000000e+00 
0.0000000e+00 0.0000000e+00 0.0000000e+00 
0.0000000e+00 0.0000000e+00 0.0000000e+00 
0.0000000e+00 0.0000000e+00 0.0000000e+00 
0.0000000e+00 0.0000000e+00 0.0000000e+00 
0.0000000e+00 0.0000000e+00 0.0000000e+00 
0.0000000e+00 0.0000000e+00 0.0000000e+00 
0.0000000e+00 0.0000000e+00 0.0000000e+00 
0.0000000e+00 0.0000000e+00 0.0000000e+00 
0.0000000e+00 0.0000000e+00 0.0000000e+00 
0.0000000e+00 0.0000000e+00 0.0000000e+00 
0.0000000e+00 0.0000000e+00 0.0000000e+00 
0.0000000e+00 0.0000000e+00 0.0000000e+00 
0.0000000e+00 0.0000000e+00 0.0000000e+00 
0.0000000e+00 0.0000000e+00 0.0000000e+00 
0.0000000e+00 0.0000000e+00 0.0000000e+00 
-1.0192978e-04 0.0000000e+00 6.4003383e-04 
0.0000000e+00 0.0000000e+00 0.0000000e+00 
-1.0192978e-04 0.0000000e+00 6.4003383e-04 
0.0000000e+00 0.0000000e+00 0.0000000e+00 
-1.9974962e-04 0.0000000e+00 1.2697638e-03 
0.0000000e+00 0.0000000e+00 0.0000000e+00 
-1.9974962e-04 0.0000000e+00 1.2697638e-03 
0.0000000e+00 0.0000000e+00 0.0000000e+00 
-2.9635329e-04 0.0000000e+00 1.9092681e-03 
0.0000000e+00 0.0000000e+00 0.0000000e+00 
-2.9635329e-04 0.0000000e+00 1.9092681e-03 
0.0000000e+00 0.0000000e+00 0.0000000e+00 
-4.0564073e-04 0.0000000e+00 2.6593467e-03 
0.0000000e+00 0.0000000e+00 0.0000000e+00 
-4.0564073e-04 0.0000000e+00 2.6593467e-03 
0.0000000e+00 0.0000000e+00 0.0000000e+00 
-5.2724825e-04 0.0000000e+00 3.5338427e-03 
0.0000000e+00 0.0000000e+00 0.0000000e+00 
0.0000000e+00 0.0000000e+00 0.0000000e+00 
-5.2724825e-04 0.0000000e+00 3.5338427e-03 
0.0000000e+00 0.0000000e+00 0.0000000e+00 
0.0000000e+00 0.0000000e+00 0.0000000e+00 
-6.4520065e-04 0.0000000e+00 4.4298629e-03 
0.0000000e+00 0.0000000e+00 0.0000000e+00 
-6.4520065e-04 0.0000000e+00 4.4298629e-03 
0.0000000e+00 0.0000000e+00 0.0000000e+00 
-7.5331903e-04 0.0000000e+00 5.2976570e-03 
0.0000000e+00 0.0000000e+00 0.0000000e+00 
-7.5331903e-04 0.0000000e+00 5.2976570e-03 
0.0000000e+00 0.0000000e+00 0.0000000e+00 
0.0000000e+00 0.0000000e+00 0.0000000e+00 
-8.5405144e-04 0.0000000e+00 6.1436050e-03 
0.0000000e+00 0.0000000e+00 0.0000000e+00 
-8.5405144e-04 0.0000000e+00 6.1436050e-03 
0.0000000e+00 0.0000000e+00 0.0000000e+00 
-9.4886680e-04 0.0000000e+00 6.9716175e-03 
0.0000000e+00 0.0000000e+00 0.0000000e+00 
-9.4886680e-04 0.0000000e+00 6.9716175e-03 
0.0000000e+00 0.0000000e+00 0.0000000e+00 
-1.0376941e-03 0.0000000e+00 7.7810592e-03 
0.0000000e+00 0.0000000e+00 0.0000000e+00 
-1.0376941e-03 0.0000000e+00 7.7810592e-03 
0.0000000e+00 0.0000000e+00 0.0000000e+00 
-1.1213443e-03 0.0000000e+00 8.5740863e-03 
0.0000000e+00 0.0000000e+00 0.0000000e+00 
-1.1213443e-03 0.0000000e+00 8.5740863e-03 
0.0000000e+00 0.0000000e+00 0.0000000e+00 
0.0000000e+00 0.0000000e+00 0.0000000e+00 
-1.2020449e-03 0.0000000e+00 9.3576030e-03 
0.0000000e+00 0.0000000e+00 0.0000000e+00 
-1.2020449e-03 0.0000000e+00 9.3576030e-03 
0.0000000e+00 0.0000000e+00 0.0000000e+00 
-1.2809683e-03 0.0000000e+00 1.0135330e-02 
0.0000000e+00 0.0000000e+00 0.0000000e+00 
-1.2809683e-03 0.0000000e+00 1.0135330e-02 
0.0000000e+00 0.0000000e+00 0.0000000e+00 
-1.3577462e-03 0.0000000e+00 1.0906012e-02 
0.0000000e+00 0.0000000e+00 0.0000000e+00 
-1.3577462e-03 0.0000000e+00 1.0906012e-02 
0.0000000e+00 0.0000000e+00 0.0000000e+00 
0.0000000e+00 0.0000000e+00 0.0000000e+00 
-1.4319894e-03 0.0000000e+00 1.1668284e-02 
-1.4319894e-03 0.0000000e+00 1.1668284e-02 
0.0000000e+00 0.0000000e+00 0.0000000e+00 
0.0000000e+00 0.0000000e+00 0.0000000e+00 
-1.5036449e-03 0.0000000e+00 1.2421872e-02 
-1.5036449e-03 0.0000000e+00 1.2421872e-02 
0.0000000e+00 0.0000000e+00 0.0000000e+00 
0.0000000e+00 0.0000000e+00 0.0000000e+00 
-1.5724504e-03 0.0000000e+00 1.3165775e-02 
-1.5724504e-03 0.0000000e+00 1.3165775e-02 
0.0000000e+00 0.0000000e+00 0.0000000e+00 
0.0000000e+00 0.0000000e+00 0.0000000e+00 
-1.6379949e-03 0.0000000e+00 1.3898439e-02 
-1.6379949e-03 0.0000000e+00 1.3898439e-02 
0.0000000e+00 0.0000000e+00 0.0000000e+00 
0.0000000e+00 0.0000000e+00 0.0000000e+00 
-1.6994002e-03 0.0000000e+00 1.4616581e-02 
0.0000000e+00 0.0000000e+00 0.0000000e+00 
-1.6994002e-03 0.0000000e+00 1.4616581e-02 
0.0000000e+00 0.0000000e+00 0.0000000e+00 
-1.7549577e-03 0.0000000e+00 1.5313689e-02 
0.0000000e+00 0.0000000e+00 0.0000000e+00 
-1.7549577e-03 0.0000000e+00 1.5313689e-02 
0.0000000e+00 0.0000000e+00 0.0000000e+00 
-1.8037347e-03 0.0000000e+00 1.5985584e-02 
0.0000000e+00 0.0000000e+00 0.0000000e+00 
-1.8037347e-03 0.0000000e+00 1.5985584e-02 
0.0000000e+00 0.0000000e+00 0.0000000e+00 
0.0000000e+00 0.0000000e+00 0.0000000e+00 
-1.8459988e-03 0.0000000e+00 1.6632345e-02 
0.0000000e+00 0.0000000e+00 0.0000000e+00 
-1.8459988e-03 0.0000000e+00 1.6632345e-02 
0.0000000e+00 0.0000000e+00 0.0000000e+00 
-1.8814226e-03 0.0000000e+00 1.7251622e-02 
0.0000000e+00 0.0000000e+00 0.0000000e+00 
-1.8814226e-03 0.0000000e+00 1.7251622e-02 
0.0000000e+00 0.0000000e+00 0.0000000e+00 
0.0000000e+00 0.0000000e+00 0.0000000e+00 
-1.9087184e-03 0.0000000e+00 1.7836606e-02 
-1.9087184e-03 0.0000000e+00 1.7836606e-02 
0.0000000e+00 0.0000000e+00 0.0000000e+00 
0.0000000e+00 0.0000000e+00 0.0000000e+00 
-1.9274045e-03 0.0000000e+00 1.8382995e-02 
-1.9274045e-03 0.0000000e+00 1.8382995e-02 
0.0000000e+00 0.0000000e+00 0.0000000e+00 
0.0000000e+00 0.0000000e+00 0.0000000e+00 
-1.9380636e-03 0.0000000e+00 1.8890876e-02 
-1.9380636e-03 0.0000000e+00 1.8890876e-02 
0.0000000e+00 0.0000000e+00 0.0000000e+00 
0.0000000e+00 0.0000000e+00 0.0000000e+00 
-1.9414586e-03 0.0000000e+00 1.9361343e-02 
-1.9414586e-03 0.0000000e+00 1.9361343e-02 
0.0000000e+00 0.0000000e+00 0.0000000e+00 
0.0000000e+00 0.0000000e+00 0.0000000e+00 
-1.9382632e-03 0.0000000e+00 1.9795268e-02 
-1.9382632e-03 0.0000000e+00 1.9795268e-02 
0.0000000e+00 0.0000000e+00 0.0000000e+00 
0.0000000e+00 0.0000000e+00 0.0000000e+00 
-1.9289646e-03 0.0000000e+00 2.0192592e-02 
0.0000000e+00 0.0000000e+00 0.0000000e+00 
-1.9289646e-03 0.0000000e+00 2.0192592e-02 
0.0000000e+00 0.0000000e+00 0.0000000e+00 
-5.0252190e-05 0.0000000e+00 1.0988561e-03 
-1.9140755e-03 0.0000000e+00 2.0553436e-02 
-5.0252190e-05 0.0000000e+00 1.0988561e-03 
-1.9140755e-03 0.0000000e+00 2.0553436e-02 
-8.9118290e-05 0.0000000e+00 2.2162436e-03 
-1.8945958e-03 0.0000000e+00 2.0881622e-02 
-8.9118290e-05 0.0000000e+00 2.2162436e-03 
-1.8945958e-03 0.0000000e+00 2.0881622e-02 
-1.2018231e-04 0.0000000e+00 3.3251705e-03 
-1.2018231e-04 0.0000000e+00 3.3251705e-03 
-1.8717558e-03 0.0000000e+00 2.1183930e-02 
-1.8717558e-03 0.0000000e+00 2.1183930e-02 
-1.4530097e-04 0.0000000e+00 4.4156195e-03 
-1.4530097e-04 0.0000000e+00 4.4156195e-03 
-1.8462752e-03 0.0000000e+00 2.1464441e-02 
-1.8462752e-03 0.0000000e+00 2.1464441e-02 
-1.6502947e-04 0.0000000e+00 5.4889380e-03 
-1.6502947e-04 0.0000000e+00 5.4889380e-03 
-1.8184600e-03 0.0000000e+00 2.1724377e-02 
-1.8184600e-03 0.0000000e+00 2.1724377e-02 
-1.8009966e-04 0.0000000e+00 6.5471591e-03 
-1.8009966e-04 0.0000000e+00 6.5471591e-03 
-1.7890384e-03 0.0000000e+00 2.1969300e-02 
-1.7890384e-03 0.0000000e+00 2.1969300e-02 
-1.9162264e-04 0.0000000e+00 7.5936794e-03 
-1.9162264e-04 0.0000000e+00 7.5936794e-03 
-1.7591453e-03 0.0000000e+00 2.2209661e-02 
-1.7591453e-03 0.0000000e+00 2.2209661e-02 
-2.0037400e-04 0.0000000e+00 8.6309412e-03 
-2.0037400e-04 0.0000000e+00 8.6309412e-03 
-1.7293803e-03 0.0000000e+00 2.2451272e-02 
-2.0614700e-04 0.0000000e+00 9.6581194e-03 
-1.7293803e-03 0.0000000e+00 2.2451272e-02 
-2.0614700e-04 0.0000000e+00 9.6581194e-03 
-2.0865171e-04 0.0000000e+00 1.0674083e-02 
-1.6998023e-03 0.0000000e+00 2.2694691e-02 
-2.0865171e-04 0.0000000e+00 1.0674083e-02 
-1.6998023e-03 0.0000000e+00 2.2694691e-02 
-2.0857589e-04 0.0000000e+00 1.1681073e-02 
-1.6707802e-03 0.0000000e+00 2.2943417e-02 
-2.0857589e-04 0.0000000e+00 1.1681073e-02 
-1.6707802e-03 0.0000000e+00 2.2943417e-02 
-2.0677451e-04 0.0000000e+00 1.2681997e-02 
-2.0677451e-04 0.0000000e+00 1.2681997e-02 
-1.6431488e-03 0.0000000e+00 2.3205023e-02 
-1.6431488e-03 0.0000000e+00 2.3205023e-02 
-2.0266489e-04 0.0000000e+00 1.3674739e-02 
-2.0266489e-04 0.0000000e+00 1.3674739e-02 
-1.6175508e-03 0.0000000e+00 2.3484534e-02 
-1.6175508e-03 0.0000000e+00 2.3484534e-02 
-1.9492488e-04 0.0000000e+00 1.4654410e-02 
-1.9492488e-04 0.0000000e+00 1.4654410e-02 
-1.5941947e-03 0.0000000e+00 2.3782690e-02 
-1.5941947e-03 0.0000000e+00 2.3782690e-02 
-1.8350764e-04 0.0000000e+00 1.5620606e-02 
-1.8350764e-04 0.0000000e+00 1.5620606e-02 
-1.5733319e-03 0.0000000e+00 2.4100451e-02 
-1.5733319e-03 0.0000000e+00 2.4100451e-02 
-1.6913593e-04 0.0000000e+00 1.6575780e-02 
-1.6913593e-04 0.0000000e+00 1.6575780e-02 
-1.5555358e-03 0.0000000e+00 2.4440942e-02 
-1.5555358e-03 0.0000000e+00 2.4440942e-02 
-1.5101928e-04 0.0000000e+00 1.7516735e-02 
-1.5101928e-04 0.0000000e+00 1.7516735e-02 
-1.5413811e-03 0.0000000e+00 2.4806767e-02 
-1.5413811e-03 0.0000000e+00 2.4806767e-02 
-1.2707261e-04 0.0000000e+00 1.8434954e-02 
-1.2707261e-04 0.0000000e+00 1.8434954e-02 
-1.5311738e-03 0.0000000e+00 2.5198372e-02 
-1.5311738e-03 0.0000000e+00 2.5198372e-02 
-9.6842217e-05 0.0000000e+00 1.9327765e-02 
-9.6842217e-05 0.0000000e+00 1.9327765e-02 
-1.5248145e-03 0.0000000e+00 2.5613695e-02 
-6.1444465e-05 0.0000000e+00 2.0198917e-02 
-1.5248145e-03 0.0000000e+00 2.5613695e-02 
-6.1444465e-05 0.0000000e+00 2.0198917e-02 
-1.5218923e-03 0.0000000e+00 2.6049189e-02 
-2.0692570e-05 0.0000000e+00 2.1046801e-02 
-1.5218923e-03 0.0000000e+00 2.6049189e-02 
-2.0692570e-05 0.0000000e+00 2.1046801e-02 
2.6802877e-05 0.0000000e+00 2.1864059e-02 
-1.5226382e-03 0.0000000e+00 2.6505297e-02 
2.6802877e-05 0.0000000e+00 2.1864059e-02 
-1.5226382e-03 0.0000000e+00 2.6505297e-02 
8.1085830e-05 0.0000000e+00 2.2648757e-02 
8.1085830e-05 0.0000000e+00 2.2648757e-02 
-1.5278454e-03 0.0000000e+00 2.6985356e-02 
-1.5278454e-03 0.0000000e+00 2.6985356e-02 
1.4106865e-04 0.0000000e+00 2.3404551e-02 
1.4106865e-04 0.0000000e+00 2.3404551e-02 
-1.5370536e-03 0.0000000e+00 2.7485976e-02 
-1.5370536e-03 0.0000000e+00 2.7485976e-02 
2.0662762e-04 0.0000000e+00 2.4130439e-02 
2.0662762e-04 0.0000000e+00 2.4130439e-02 
-1.5486024e-03 0.0000000e+00 2.7998261e-02 
-1.5486024e-03 0.0000000e+00 2.7998261e-02 
2.7841492e-04 0.0000000e+00 2.4820631e-02 
2.7841492e-04 0.0000000e+00 2.4820631e-02 
-1.5620637e-03 0.0000000e+00 2.8519893e-02 
-1.5620637e-03 0.0000000e+00 2.8519893e-02 
3.5609267e-04 0.0000000e+00 2.5474331e-02 
3.5609267e-04 0.0000000e+00 2.5474331e-02 
-1.5782406e-03 0.0000000e+00 2.9054529e-02 
-1.5782406e-03 0.0000000e+00 2.9054529e-02 
4.3853266e-04 0.0000000e+00 2.6096078e-02 
4.3853266e-04 0.0000000e+00 2.6096078e-02 
-1.5962783e-03 0.0000000e+00 2.9597904e-02 
-1.5962783e-03 0.0000000e+00 2.9597904e-02 
5.2503789e-04 0.0000000e+00 2.6688376e-02 
5.2503789e-04 0.0000000e+00 2.6688376e-02 
-1.6136863e-03 0.0000000e+00 3.0138337e-02 
-1.6136863e-03 0.0000000e+00 3.0138337e-02 
6.1535118e-04 0.0000000e+00 2.7250772e-02 
6.1535118e-04 0.0000000e+00 2.7250772e-02 
-1.6298623e-03 0.0000000e+00 3.0672968e-02 
-1.6298623e-03 0.0000000e+00 3.0672968e-02 
7.0919474e-04 0.0000000e+00 2.7782900e-02 
7.0919474e-04 0.0000000e+00 2.7782900e-02 
-1.6458993e-03 0.0000000e+00 3.1206943e-02 
-1.6458993e-03 0.0000000e+00 3.1206943e-02 
8.0611288e-04 0.0000000e+00 2.8286041e-02 
8.0611288e-04 0.0000000e+00 2.8286041e-02 
-1.6610168e-03 0.0000000e+00 3.1736542e-02 
-1.6610168e-03 0.0000000e+00 3.1736542e-02 
9.0542403e-04 0.0000000e+00 2.8764379e-02 
9.0542403e-04 0.0000000e+00 2.8764379e-02 
-1.6727129e-03 0.0000000e+00 3.2249551e-02 
-1.6727129e-03 0.0000000e+00 3.2249551e-02 
1.0064368e-03 0.0000000e+00 2.9223531e-02 
1.0064368e-03 0.0000000e+00 2.9223531e-02 
-1.6804021e-03 0.0000000e+00 3.2742462e-02 
1.1088717e-03 0.0000000e+00 2.9665380e-02 
-1.6804021e-03 0.0000000e+00 3.2742462e-02 
1.1088717e-03 0.0000000e+00 2.9665380e-02 
1.2126725e-03 0.0000000e+00 3.0089250e-02 
-1.6852287e-03 0.0000000e+00 3.3220523e-02 
1.2126725e-03 0.0000000e+00 3.0089250e-02 
-1.6852287e-03 0.0000000e+00 3.3220523e-02 
1.3174225e-03 0.0000000e+00 3.0499627e-02 
-1.6867651e-03 0.0000000e+00 3.3680958e-02 
1.3174225e-03 0.0000000e+00 3.0499627e-02 
-1.6867651e-03 0.0000000e+00 3.3680958e-02 
1.4225008e-03 0.0000000e+00 3.0905117e-02 
1.4225008e-03 0.0000000e+00 3.0905117e-02 
-1.6833329e-03 0.0000000e+00 3.4113515e-02 
-1.6833329e-03 0.0000000e+00 3.4113515e-02 
1.5277342e-03 0.0000000e+00 3.1308255e-02 
1.5277342e-03 0.0000000e+00 3.1308255e-02 
-1.6748621e-03 0.0000000e+00 3.4515981e-02 
-1.6748621e-03 0.0000000e+00 3.4515981e-02 
1.6332949e-03 0.0000000e+00 3.1706319e-02 
1.6332949e-03 0.0000000e+00 3.1706319e-02 
-1.6624412e-03 0.0000000e+00 3.4893328e-02 
-1.6624412e-03 0.0000000e+00 3.4893328e-02 
1.7389823e-03 0.0000000e+00 3.2102384e-02 
1.7389823e-03 0.0000000e+00 3.2102384e-02 
-1.6459225e-03 0.0000000e+00 3.5242895e-02 
-1.6459225e-03 0.0000000e+00 3.5242895e-02 
1.8442882e-03 0.0000000e+00 3.2504408e-02 
1.8442882e-03 0.0000000e+00 3.2504408e-02 
-1.6243794e-03 0.0000000e+00 3.5555414e-02 
-1.6243794e-03 0.0000000e+00 3.5555414e-02 
1.9490377e-03 0.0000000e+00 3.2914799e-02 
1.9490377e-03 0.0000000e+00 3.2914799e-02 
-1.5981848e-03 0.0000000e+00 3.5829775e-02 
-1.5981848e-03 0.0000000e+00 3.5829775e-02 
2.0533662e-03 0.0000000e+00 3.3331278e-02 
2.0533662e-03 0.0000000e+00 3.3331278e-02 
-1.5685550e-03 0.0000000e+00 3.6072694e-02 
-1.5685550e-03 0.0000000e+00 3.6072694e-02 
2.1570941e-03 0.0000000e+00 3.3756149e-02 
2.1570941e-03 0.0000000e+00 3.3756149e-02 
-1.5359393e-03 0.0000000e+00 3.6285155e-02 
-1.5359393e-03 0.0000000e+00 3.6285155e-02 
2.2596863e-03 0.0000000e+00 3.4196000e-02 
2.2596863e-03 0.0000000e+00 3.4196000e-02 
-1.5001746e-03 0.0000000e+00 3.6460970e-02 
-1.5001746e-03 0.0000000e+00 3.6460970e-02 
2.3609439e-03 0.0000000e+00 3.4652260e-02 
2.3609439e-03 0.0000000e+00 3.4652260e-02 
-1.4615326e-03 0.0000000e+00 3.6596905e-02 
-1.4615326e-03 0.0000000e+00 3.6596905e-02 
2.4611081e-03 0.0000000e+00 3.5121166e-02 
2.4611081e-03 0.0000000e+00 3.5121166e-02 
-1.4206515e-03 0.0000000e+00 3.6694276e-02 
-1.4206515e-03 0.0000000e+00 3.6694276e-02 
2.5600112e-03 0.0000000e+00 3.5603897e-02 
2.5600112e-03 0.0000000e+00 3.5603897e-02 
-1.3781009e-03 0.0000000e+00 3.6754070e-02 
-1.3781009e-03 0.0000000e+00 3.6754070e-02 
2.6570002e-03 0.0000000e+00 3.6106334e-02 
2.6570002e-03 0.0000000e+00 3.6106334e-02 
-1.3343843e-03 0.0000000e+00 3.6776218e-02 
-1.3343843e-03 0.0000000e+00 3.6776218e-02 
2.7515091e-03 0.0000000e+00 3.6625623e-02 
2.7515091e-03 0.0000000e+00 3.6625623e-02 
-1.2898665e-03 0.0000000e+00 3.6759802e-02 
-1.2898665e-03 0.0000000e+00 3.6759802e-02 
2.8629870e-03 0.0000000e+00 3.7266315e-02 
2.8629870e-03 0.0000000e+00 3.7266315e-02 
-1.2363018e-03 0.0000000e+00 3.6687851e-02 
-1.2363018e-03 0.0000000e+00 3.6687851e-02 
2.9938470e-03 0.0000000e+00 3.8060277e-02 
2.9938470e-03 0.0000000e+00 3.8060277e-02 
-1.1729590e-03 0.0000000e+00 3.6532453e-02 
-1.1729590e-03 0.0000000e+00 3.6532453e-02 
3.1449316e-03 0.0000000e+00 3.9060987e-02 
3.1449316e-03 0.0000000e+00 3.9060987e-02 
-1.1001926e-03 0.0000000e+00 3.6266835e-02 
-1.1001926e-03 0.0000000e+00 3.6266835e-02 
3.2969385e-03 0.0000000e+00 4.0169041e-02 
3.2969385e-03 0.0000000e+00 4.0169041e-02 
-1.0317970e-03 0.0000000e+00 3.5910859e-02 
-1.0317970e-03 0.0000000e+00 3.5910859e-02 
3.4437456e-03 0.0000000e+00 4.1313403e-02 
3.4437456e-03 0.0000000e+00 4.1313403e-02 
-9.7096608e-04 0.0000000e+00 3.5445614e-02 
-9.7096608e-04 0.0000000e+00 3.5445614e-02 
3.5868207e-03 0.0000000e+00 4.2482757e-02 
3.5868207e-03 0.0000000e+00 4.2482757e-02 
-9.1910589e-04 0.0000000e+00 3.4881811e-02 
-9.1910589e-04 0.0000000e+00 3.4881811e-02 
3.7266972e-03 0.0000000e+00 4.3672901e-02 
3.7266972e-03 0.0000000e+00 4.3672901e-02 
-8.7419423e-04 0.0000000e+00 3.4253766e-02 
-8.7419423e-04 0.0000000e+00 3.4253766e-02 
3.8640572e-03 0.0000000e+00 4.4879017e-02 
3.8640572e-03 0.0000000e+00 4.4879017e-02 
-8.3702635e-04 0.0000000e+00 3.3562086e-02 
-8.3702635e-04 0.0000000e+00 3.3562086e-02 
3.9991339e-03 0.0000000e+00 4.6099359e-02 
3.9991339e-03 0.0000000e+00 4.6099359e-02 
-8.1244556e-04 0.0000000e+00 3.2779283e-02 
-8.1244556e-04 0.0000000e+00 3.2779283e-02 
4.1339729e-03 0.0000000e+00 4.7321164e-02 
4.1339729e-03 0.0000000e+00 4.7321164e-02 
-8.0061642e-04 0.0000000e+00 3.1915041e-02 
-8.0061642e-04 0.0000000e+00 3.1915041e-02 