# vtk DataFile Version 4.0
vtk output
ASCII
DATASET UNSTRUCTURED_GRID
POINTS 824 float
-6.4148600e-05 1.0000000e-02 -4.4525366e-03 
-1.0680180e-04 1.0000000e-02 -2.8088474e-03 
3.4513260e-04 1.0000000e-02 -6.0450544e-03 
1.3803532e-03 1.0000000e-02 -7.3230534e-03 
6.5829700e-05 1.0000000e-02 -1.1736922e-03 
2.7142144e-03 1.0000000e-02 -8.2851896e-03 
5.0392030e-04 1.0000000e-02 6.5784910e-04 
4.1780764e-03 1.0000000e-02 -9.0342357e-03 
1.1628646e-03 1.0000000e-02 2.4220088e-03 
5.7070961e-03 1.0000000e-02 -9.6390187e-03 
2.0046218e-03 1.0000000e-02 4.1066196e-03 
7.2731595e-03 1.0000000e-02 -1.0140047e-02 
-6.4148600e-05 0.0000000e+00 -4.4525366e-03 
-1.0680180e-04 0.0000000e+00 -2.8088474e-03 
3.4513260e-04 0.0000000e+00 -6.0450544e-03 
1.3803532e-03 0.0000000e+00 -7.3230534e-03 
6.5829700e-05 0.0000000e+00 -1.1736922e-03 
2.9952540e-03 1.0000000e-02 5.7082181e-03 
8.8622628e-03 1.0000000e-02 -1.0562311e-02 
2.7142144e-03 0.0000000e+00 -8.2851896e-03 
5.0392030e-04 0.0000000e+00 6.5784910e-04 
4.1780764e-03 0.0000000e+00 -9.0342357e-03 
1.1628646e-03 0.0000000e+00 2.4220088e-03 
1.0466628e-02 1.0000000e-02 -1.0922252e-02 
4.1067238e-03 1.0000000e-02 7.2284501e-03 
5.7070961e-03 0.0000000e+00 -9.6390187e-03 
2.0046218e-03 0.0000000e+00 4.1066196e-03 
7.2731595e-03 0.0000000e+00 -1.0140047e-02 
1.2081579e-02 1.0000000e-02 -1.1231240e-02 
5.3166988e-03 1.0000000e-02 8.6715129e-03 
2.9952540e-03 0.0000000e+00 5.7082181e-03 
8.8622628e-03 0.0000000e+00 -1.0562311e-02 
1.3704120e-02 1.0000000e-02 -1.1497501e-02 
1.0466628e-02 0.0000000e+00 -1.0922252e-02 
4.1067238e-03 0.0000000e+00 7.2284501e-03 
6.6076374e-03 1.0000000e-02 1.0042624e-02 
1.5332244e-02 1.0000000e-02 -1.1727173e-02 
1.2081579e-02 0.0000000e+00 -1.1231240e-02 
5.3166988e-03 0.0000000e+00 8.6715129e-03 
7.9658343e-03 1.0000000e-02 1.1347144e-02 
1.3704120e-02 0.0000000e+00 -1.1497501e-02 
1.6964543e-02 1.0000000e-02 -1.1925002e-02 
6.6076374e-03 0.0000000e+00 1.0042624e-02 
9.3804686e-03 1.0000000e-02 1.2590236e-02 
1.5332244e-02 0.0000000e+00 -1.1727173e-02 
1.8600004e-02 1.0000000e-02 -1.2094716e-02 
7.9658343e-03 0.0000000e+00 1.1347144e-02 
1.6964543e-02 0.0000000e+00 -1.1925002e-02 
1.0843002e-02 1.0000000e-02 1.3776601e-02 
2.0237876e-02 1.0000000e-02 -1.2239318e-02 
9.3804686e-03 0.0000000e+00 1.2590236e-02 
1.8600004e-02 0.0000000e+00 -1.2094716e-02 
1.2346566e-02 1.0000000e-02 1.4910517e-02 
2.1877591e-02 1.0000000e-02 -1.2361246e-02 
1.0843002e-02 0.0000000e+00 1.3776601e-02 
2.0237876e-02 0.0000000e+00 -1.2239318e-02 
1.3885623e-02 1.0000000e-02 1.5995768e-02 
2.3518711e-02 1.0000000e-02 -1.2462540e-02 
1.2346566e-02 0.0000000e+00 1.4910517e-02 
2.1877591e-02 0.0000000e+00 -1.2361246e-02 
2.5160890e-02 1.0000000e-02 -1.2544903e-02 
1.5455654e-02 1.0000000e-02 1.7035707e-02 
1.3885623e-02 0.0000000e+00 1.5995768e-02 
2.3518711e-02 0.0000000e+00 -1.2462540e-02 
2.6803852e-02 1.0000000e-02 -1.2609772e-02 
1.7052912e-02 1.0000000e-02 1.8033321e-02 
2.5160890e-02 0.0000000e+00 -1.2544903e-02 
1.5455654e-02 0.0000000e+00 1.7035707e-02 
2.8447376e-02 1.0000000e-02 -1.2658389e-02 
2.6803852e-02 0.0000000e+00 -1.2609772e-02 
1.7052912e-02 0.0000000e+00 1.8033321e-02 
1.8674284e-02 1.0000000e-02 1.8991246e-02 
3.0091279e-02 1.0000000e-02 -1.2691814e-02 
2.8447376e-02 0.0000000e+00 -1.2658389e-02 
1.8674284e-02 0.0000000e+00 1.8991246e-02 
2.0317149e-02 1.0000000e-02 1.9911822e-02 
3.0091279e-02 0.0000000e+00 -1.2691814e-02 
3.1735410e-02 1.0000000e-02 -1.2710971e-02 
2.0317149e-02 0.0000000e+00 1.9911822e-02 
2.1979295e-02 1.0000000e-02 2.0797113e-02 
3.1735410e-02 0.0000000e+00 -1.2710971e-02 
3.3379643e-02 1.0000000e-02 -1.2716676e-02 
2.1979295e-02 0.0000000e+00 2.0797113e-02 
2.3658832e-02 1.0000000e-02 2.1648949e-02 
3.3379643e-02 0.0000000e+00 -1.2716676e-02 
3.5023871e-02 1.0000000e-02 -1.2709629e-02 
2.3658832e-02 0.0000000e+00 2.1648949e-02 
2.5354100e-02 1.0000000e-02 2.2469029e-02 
3.5023871e-02 0.0000000e+00 -1.2709629e-02 
3.6668001e-02 1.0000000e-02 -1.2690457e-02 
2.5354100e-02 0.0000000e+00 2.2469029e-02 
2.7063712e-02 1.0000000e-02 2.3258772e-02 
3.6668001e-02 0.0000000e+00 -1.2690457e-02 
3.8312016e-02 1.0000000e-02 -1.2663038e-02 
2.7063712e-02 0.0000000e+00 2.3258772e-02 
3.8312016e-02 0.0000000e+00 -1.2663038e-02 
2.8786417e-02 1.0000000e-02 2.4019532e-02 
3.9956032e-02 1.0000000e-02 -1.2635752e-02 
2.8786417e-02 0.0000000e+00 2.4019532e-02 
3.9956032e-02 0.0000000e+00 -1.2635752e-02 
3.0521135e-02 1.0000000e-02 2.4752486e-02 
4.1600048e-02 1.0000000e-02 -1.2608467e-02 
3.0521135e-02 0.0000000e+00 2.4752486e-02 
4.1600048e-02 0.0000000e+00 -1.2608467e-02 
3.2266919e-02 1.0000000e-02 2.5458676e-02 
4.3299814e-02 1.0000000e-02 -1.2580255e-02 
3.2266919e-02 0.0000000e+00 2.5458676e-02 
4.3299814e-02 0.0000000e+00 -1.2580255e-02 
3.4022902e-02 1.0000000e-02 2.6139111e-02 
4.5339533e-02 1.0000000e-02 -1.2546402e-02 
3.4022902e-02 0.0000000e+00 2.6139111e-02 
4.5339533e-02 0.0000000e+00 -1.2546402e-02 
3.5788340e-02 1.0000000e-02 2.6794623e-02 
4.7787196e-02 1.0000000e-02 -1.2505778e-02 
3.5788340e-02 0.0000000e+00 2.6794623e-02 
3.7562554e-02 1.0000000e-02 2.7425996e-02 
4.7787196e-02 0.0000000e+00 -1.2505778e-02 
3.7562554e-02 0.0000000e+00 2.7425996e-02 
3.9344928e-02 1.0000000e-02 2.8033950e-02 
5.0379113e-02 1.0000000e-02 -1.2462760e-02 
3.9344928e-02 0.0000000e+00 2.8033950e-02 
5.0379113e-02 0.0000000e+00 -1.2462760e-02 
4.1134916e-02 1.0000000e-02 2.8619109e-02 
5.2971029e-02 1.0000000e-02 -1.2419741e-02 
4.1134916e-02 0.0000000e+00 2.8619109e-02 
5.2971029e-02 0.0000000e+00 -1.2419741e-02 
4.2932026e-02 1.0000000e-02 2.9182016e-02 
4.2932026e-02 0.0000000e+00 2.9182016e-02 
5.5562946e-02 1.0000000e-02 -1.2376723e-02 
4.5339682e-02 1.0000000e-02 2.9899231e-02 
5.5562946e-02 0.0000000e+00 -1.2376723e-02 
4.5339682e-02 0.0000000e+00 2.9899231e-02 
5.8154863e-02 1.0000000e-02 -1.2333705e-02 
4.7758221e-02 1.0000000e-02 3.0578844e-02 
5.8154863e-02 0.0000000e+00 -1.2333705e-02 
4.7758221e-02 0.0000000e+00 3.0578844e-02 
6.0746779e-02 1.0000000e-02 -1.2290686e-02 
5.0186760e-02 1.0000000e-02 3.1221807e-02 
6.0746779e-02 0.0000000e+00 -1.2290686e-02 
5.0186760e-02 0.0000000e+00 3.1221807e-02 
6.3338696e-02 1.0000000e-02 -1.2247668e-02 
5.2624513e-02 1.0000000e-02 3.1828903e-02 
6.3338696e-02 0.0000000e+00 -1.2247668e-02 
5.2624513e-02 0.0000000e+00 3.1828903e-02 
5.5070762e-02 1.0000000e-02 3.2400804e-02 
6.5930613e-02 1.0000000e-02 -1.2204650e-02 
5.5070762e-02 0.0000000e+00 3.2400804e-02 
6.5930613e-02 0.0000000e+00 -1.2204650e-02 
5.7524847e-02 1.0000000e-02 3.2938082e-02 
6.8522529e-02 1.0000000e-02 -1.2161631e-02 
5.7524847e-02 0.0000000e+00 3.2938082e-02 
6.8522529e-02 0.0000000e+00 -1.2161631e-02 
5.9986169e-02 1.0000000e-02 3.3441170e-02 
7.1114446e-02 1.0000000e-02 -1.2118613e-02 
5.9986169e-02 0.0000000e+00 3.3441170e-02 
7.1114446e-02 0.0000000e+00 -1.2118613e-02 
6.2454163e-02 1.0000000e-02 3.3910436e-02 
6.2454163e-02 0.0000000e+00 3.3910436e-02 
7.3706362e-02 1.0000000e-02 -1.2075595e-02 
7.3706362e-02 0.0000000e+00 -1.2075595e-02 
6.4928303e-02 1.0000000e-02 3.4346139e-02 
6.4928303e-02 0.0000000e+00 3.4346139e-02 
7.6298279e-02 1.0000000e-02 -1.2032577e-02 
7.6298279e-02 0.0000000e+00 -1.2032577e-02 
6.7408092e-02 1.0000000e-02 3.4748446e-02 
6.7408092e-02 0.0000000e+00 3.4748446e-02 
7.8890196e-02 1.0000000e-02 -1.1989558e-02 
7.8890196e-02 0.0000000e+00 -1.1989558e-02 
6.9893057e-02 1.0000000e-02 3.5117436e-02 
6.9893057e-02 0.0000000e+00 3.5117436e-02 
8.1482112e-02 1.0000000e-02 -1.1946540e-02 
8.1482112e-02 0.0000000e+00 -1.1946540e-02 
7.2382742e-02 1.0000000e-02 3.5453098e-02 
7.2382742e-02 0.0000000e+00 3.5453098e-02 
8.4074029e-02 1.0000000e-02 -1.1903522e-02 
7.4876707e-02 1.0000000e-02 3.5755332e-02 
8.4074029e-02 0.0000000e+00 -1.1903522e-02 
7.4876707e-02 0.0000000e+00 3.5755332e-02 
8.6665946e-02 1.0000000e-02 -1.1860503e-02 
7.7374516e-02 1.0000000e-02 3.6023948e-02 
8.6665946e-02 0.0000000e+00 -1.1860503e-02 
7.7374516e-02 0.0000000e+00 3.6023948e-02 
8.9257862e-02 1.0000000e-02 -1.1817485e-02 
7.9875738e-02 1.0000000e-02 3.6258665e-02 
8.9257862e-02 0.0000000e+00 -1.1817485e-02 
7.9875738e-02 0.0000000e+00 3.6258665e-02 
8.2379940e-02 1.0000000e-02 3.6459105e-02 
9.1849779e-02 1.0000000e-02 -1.1774467e-02 
8.2379940e-02 0.0000000e+00 3.6459105e-02 
9.1849779e-02 0.0000000e+00 -1.1774467e-02 
8.4886681e-02 1.0000000e-02 3.6624786e-02 
9.4441696e-02 1.0000000e-02 -1.1731448e-02 
8.4886681e-02 0.0000000e+00 3.6624786e-02 
9.4441696e-02 0.0000000e+00 -1.1731448e-02 
8.7395510e-02 1.0000000e-02 3.6755108e-02 
8.7395510e-02 0.0000000e+00 3.6755108e-02 
9.7033612e-02 1.0000000e-02 -1.1688430e-02 
9.7033612e-02 0.0000000e+00 -1.1688430e-02 
8.9905951e-02 1.0000000e-02 3.6849401e-02 
8.9905951e-02 0.0000000e+00 3.6849401e-02 
9.9625529e-02 1.0000000e-02 -1.1645412e-02 
9.9625529e-02 0.0000000e+00 -1.1645412e-02 
9.2417505e-02 1.0000000e-02 3.6906832e-02 
9.2417505e-02 0.0000000e+00 3.6906832e-02 
1.0221745e-01 1.0000000e-02 -1.1602393e-02 
1.0221745e-01 0.0000000e+00 -1.1602393e-02 
9.4929640e-02 1.0000000e-02 3.6926425e-02 
9.4929640e-02 0.0000000e+00 3.6926425e-02 
1.0480936e-01 1.0000000e-02 -1.1559375e-02 
1.0480936e-01 0.0000000e+00 -1.1559375e-02 
9.7441776e-02 1.0000000e-02 3.6907077e-02 
9.7441776e-02 0.0000000e+00 3.6907077e-02 
1.0740128e-01 1.0000000e-02 -1.1516357e-02 
1.0740128e-01 0.0000000e+00 -1.1516357e-02 
9.9953281e-02 1.0000000e-02 3.6847529e-02 
9.9953281e-02 0.0000000e+00 3.6847529e-02 
1.0999320e-01 1.0000000e-02 -1.1473339e-02 
1.0246345e-01 1.0000000e-02 3.6746314e-02 
1.0999320e-01 0.0000000e+00 -1.1473339e-02 
1.0246345e-01 0.0000000e+00 3.6746314e-02 
1.0497150e-01 1.0000000e-02 3.6601738e-02 
1.1258511e-01 1.0000000e-02 -1.1430320e-02 
1.0497150e-01 0.0000000e+00 3.6601738e-02 
1.1258511e-01 0.0000000e+00 -1.1430320e-02 
1.0747666e-01 1.0000000e-02 3.6413638e-02 
1.1517703e-01 1.0000000e-02 -1.1387302e-02 
1.0747666e-01 0.0000000e+00 3.6413638e-02 
[...]
POINT_DATA 824
FIELD FieldData 2
DISPLACEMENT 3 824  float
0.0000000e+00 0.0000000e+00 0.0000000e+00 
0.0000000e+00 0.0000000e+00 0.0000000e+00 
0.0000000e+00 0.0000000e+00 0.0000000e+00 
0.0000000e+00 0.0000000e+00 0.0000000e+00 
0.0000000e+00 0.0000000e+00 0.0000000e+00 
0.0000000e+00 0.0000000e+00 0.0000000e+00 
0.0000000e+00 0.0000000e+00 0.0000000e+00 
0.0000000e+00 0.0000000e+00 0.0000000e+00 
0.0000000e+00 0.0000000e+00 0.0000000e+00 
0.0000000e+00 0.0000000e+00 0.0000000e+00 
0.0000000e+00 0.0000000e+00 0.0000000e+00 
0.0000000e+00 0.0000000e+00 0.0000000e+00 
0.0000000e+00 0.0000000e+00 0.0000000e+00 
0.0000000e+00 0.0000000e+00 0.0000000e+00 
0.0000000e+00 0.0000000e+00 0.0000000e+00 
0.0000000e+00 0.0000000e+00 0.0000000e+00 
0.0000000e+00 0.0000000e+00 0.0000000e+00 
0.0000000e+00 0.0000000e+00 0.0000000e+00 
0.0000000e+00 0.0000000e+00 0.0000000e+00 
0.0000000e+00 0.0000000e+00 0.0000000e+00 
0.0000000e+00 0.0000000e+00 0.0000000e+00 
0.0000000e+00 0.0000000e+00 0.0000000e+00 
0.0000000e+00 0.0000000e+00 0.0000000e+00 
0.0000000e+00 0.0000000e+00 0.0000000e+00 
0.0000000e+00 0.0000000e+00 0.0000000e+00 
0.0000000e+00 0.0000000e+00 0.0000000e+00 
0.0000000e+00 0.0000000e+00 0.0000000e+00 
0.0000000e+00 0.0000000e+00 0.0000000e+00 
0.0000000e+00 0.0000000e+00 0.0000000e+00 
0.0000000e+00 0.0000000e+00 0.0000000e+00 
0.0000000e+00 0.0000000e+00 0.0000000e+00 
0.0000000e+00 0.0000000e+00 0.0000000e+00 
0.0000000e+00 0.0000000e+00 0.0000000e+00 
0.0000000e+00 0.0000000e+00 0.0000000e+00 
0.0000000e+00 0.0000000e+00 0.0000000e+00 
0.0000000e+00 0.0000000e+00 0.0000000e+00 
0.0000000e+00 0.0000000e+00 0.0000000e+00 
0.0000000e+00 0.0000000e+00 0.0000000e+00 
0.0000000e+00 0.0000000e+00 0.0000000e+00 
0.0000000e+00 0.0000000e+00 0.0000000e+00 
0.0000000e+00 0.0000000e+00 0.0000000e+00 
0.0000000e+00 0.0000000e+00 0.0000000e+00 
0.0000000e+00 0.0000000e+00 0.0000000e+00 
0.0000000e+00 0.0000000e+00 0.0000000e+00 
0.0000000e+00 0.0000000e+00 0.0000000e+00 
0.0000000e+00 0.0000000e+00 0.0000000e+00 
0.0000000e+00 0.0000000e+00 0.0000000e+00 
0.0000000e+00 0.0000000e+00 0.0000000e+00 
0.0000000e+00 0.0000000e+00 0.0000000e+00 
0.0000000e+00 0.0000000e+00 0.0000000e+00 
0.0000000e+00 0.0000000e+00 0.0000000e+00 
0.0000000e+00 0.0000000e+00 0.0000000e+00 
0.0000000e+00 0.0000000e+00 0.0000000e+00 
0.0000000e+00 0.0000000e+00 0.0000000e+00 
0.0000000e+00 0.0000000e+00 0.0000000e+00 
0.0000000e+00 0.0000000e+00 0.0000000e+00 
0.0000000e+00 0.0000000e+00 0.0000000e+00 
0.0000000e+00 0.0000000e+00 0.0000000e+00 
0.0000000e+00 0.0000000e+00 0.0000000e+00 
0.0000000e+00 0.0000000e+00 0.0000000e+00 
0.0000000e+00 0.0000000e+00 0.0000000e+00 
0.0000000e+00 0.0000000e+00 0.0000000e+00 
0.0000000e+00 0.0000000e+00 0.0000000e+00 
0.0000000e+00 0.0000000e+00 0.0000000e+00 
0.0000000e+00 0.0000000e+00 0.0000000e+00 
0.0000000e+00 0.0000000e+00 0.0000000e+00 
0.0000000e+00 0.0000000e+00 0.0000000e+00 
0.0000000e+00 0.0000000e+00 0.0000000e+00 
0.0000000e+00 0.0000000e+00 0.0000000e+00 
0.0000000e+00 0.0000000e+00 0.0000000e+00 
0.0000000e+00 0.0000000e+00 0.0000000e+00 
0.0000000e+00 0.0000000e+00 0.0000000e+00 
0.0000000e+00 0.0000000e+00 0.0000000e+00 
0.0000000e+00 0.0000000e+00 0.0000000e+00 
0.0000000e+00 0.0000000e+00 0.0000000e+00 
0.0000000e+00 0.0000000e+00 0.0000000e+00 
0.0000000e+00 0.0000000e+00 0.0000000e+00 
0.0000000e+00 0.0000000e+00 0.0000000e+00 
0.0000000e+00 0.0000000e+00 0.0000000e+00 
0.0000000e+00 0.0000000e+00 0.0000000e+00 
0.0000000e+00 0.0000000e+00 0.0000000e+00 
0.0000000e+00 0.0000000e+00 0.0000000e+00 
0.0000000e+00 0.0000000e+00 0.0000000e+00 
0.0000000e+00 0.0000000e+00 0.0000000e+00 
0.0000000e+00 0.0000000e+00 0.0000000e+00 
0.0000000e+00 0.0000000e+00 0.0000000e+00 
0.0000000e+00 0.0000000e+00 0.0000000e+00 
0.0000000e+00 0.0000000e+00 0.0000000e+00 
0.0000000e+00 0.0000000e+00 0.0000000e+00 
0.0000000e+00 0.0000000e+00 0.0000000e+00 
0.0000000e+00 0.0000000e+00 0.0000000e+00 
0.0000000e+00 0.0000000e+00 0.0000000e+00 
0.0000000e+00 0.0000000e+00 0.0000000e+00 
0.0000000e+00 0.0000000e+00 0.0000000e+00 
0.0000000e+00 0.0000000e+00 0.0000000e+00 
0.0000000e+00 0.0000000e+00 0.0000000e+00 
0.0000000e+00 0.0000000e+00 0.0000000e+00 
-2.9984346e-05 0.0000000e+00 3.6457499e-04 
0.0000000e+00 0.0000000e+00 0.0000000e+00 
-2.9984346e-05 0.0000000e+00 3.6457499e-04 
0.0000000e+00 0.0000000e+00 0.0000000e+00 
-5.9817528e-05 0.0000000e+00 7.2852239e-04 
0.0000000e+00 0.0000000e+00 0.0000000e+00 
-5.9817528e-05 0.0000000e+00 7.2852239e-04 
0.0000000e+00 0.0000000e+00 0.0000000e+00 
-9.0470847e-05 0.0000000e+00 1.1040135e-03 
0.0000000e+00 0.0000000e+00 0.0000000e+00 
-9.0470847e-05 0.0000000e+00 1.1040135e-03 
0.0000000e+00 0.0000000e+00 0.0000000e+00 
-1.2695435e-04 0.0000000e+00 1.5533537e-03 
0.0000000e+00 0.0000000e+00 0.0000000e+00 
-1.2695435e-04 0.0000000e+00 1.5533537e-03 
0.0000000e+00 0.0000000e+00 0.0000000e+00 
-1.7024794e-04 0.0000000e+00 2.0905362e-03 
0.0000000e+00 0.0000000e+00 0.0000000e+00 
0.0000000e+00 0.0000000e+00 0.0000000e+00 
-1.7024794e-04 0.0000000e+00 2.0905362e-03 
0.0000000e+00 0.0000000e+00 0.0000000e+00 
0.0000000e+00 0.0000000e+00 0.0000000e+00 
-2.1541975e-04 0.0000000e+00 2.6565704e-03 
0.0000000e+00 0.0000000e+00 0.0000000e+00 
-2.1541975e-04 0.0000000e+00 2.6565704e-03 
0.0000000e+00 0.0000000e+00 0.0000000e+00 
-2.5978644e-04 0.0000000e+00 3.2192339e-03 
0.0000000e+00 0.0000000e+00 0.0000000e+00 
-2.5978644e-04 0.0000000e+00 3.2192339e-03 
0.0000000e+00 0.0000000e+00 0.0000000e+00 
0.0000000e+00 0.0000000e+00 0.0000000e+00 
-3.0324322e-04 0.0000000e+00 3.7780715e-03 
0.0000000e+00 0.0000000e+00 0.0000000e+00 
-3.0324322e-04 0.0000000e+00 3.7780715e-03 
0.0000000e+00 0.0000000e+00 0.0000000e+00 
-3.4568251e-04 0.0000000e+00 4.3325910e-03 
0.0000000e+00 0.0000000e+00 0.0000000e+00 
-3.4568251e-04 0.0000000e+00 4.3325910e-03 
0.0000000e+00 0.0000000e+00 0.0000000e+00 
-3.8704463e-04 0.0000000e+00 4.8824942e-03 
0.0000000e+00 0.0000000e+00 0.0000000e+00 
-3.8704463e-04 0.0000000e+00 4.8824942e-03 
0.0000000e+00 0.0000000e+00 0.0000000e+00 
-4.2732474e-04 0.0000000e+00 5.4277292e-03 
0.0000000e+00 0.0000000e+00 0.0000000e+00 
-4.2732474e-04 0.0000000e+00 5.4277292e-03 
0.0000000e+00 0.0000000e+00 0.0000000e+00 
0.0000000e+00 0.0000000e+00 0.0000000e+00 
-4.6649081e-04 0.0000000e+00 5.9681211e-03 
0.0000000e+00 0.0000000e+00 0.0000000e+00 
-4.6649081e-04 0.0000000e+00 5.9681211e-03 
0.0000000e+00 0.0000000e+00 0.0000000e+00 
-5.0448811e-04 0.0000000e+00 6.5033754e-03 
0.0000000e+00 0.0000000e+00 0.0000000e+00 
-5.0448811e-04 0.0000000e+00 6.5033754e-03 
0.0000000e+00 0.0000000e+00 0.0000000e+00 
-5.4130047e-04 0.0000000e+00 7.0333647e-03 
0.0000000e+00 0.0000000e+00 0.0000000e+00 
-5.4130047e-04 0.0000000e+00 7.0333647e-03 
0.0000000e+00 0.0000000e+00 0.0000000e+00 
0.0000000e+00 0.0000000e+00 0.0000000e+00 
-5.7694420e-04 0.0000000e+00 7.5581169e-03 
-5.7694420e-04 0.0000000e+00 7.5581169e-03 
0.0000000e+00 0.0000000e+00 0.0000000e+00 
0.0000000e+00 0.0000000e+00 0.0000000e+00 
-6.1140691e-04 0.0000000e+00 8.0775325e-03 
-6.1140691e-04 0.0000000e+00 8.0775325e-03 
0.0000000e+00 0.0000000e+00 0.0000000e+00 
0.0000000e+00 0.0000000e+00 0.0000000e+00 
-6.4464375e-04 0.0000000e+00 8.5913401e-03 
-6.4464375e-04 0.0000000e+00 8.5913401e-03 
0.0000000e+00 0.0000000e+00 0.0000000e+00 
0.0000000e+00 0.0000000e+00 0.0000000e+00 
-6.7664398e-04 0.0000000e+00 9.0994220e-03 
-6.7664398e-04 0.0000000e+00 9.0994220e-03 
0.0000000e+00 0.0000000e+00 0.0000000e+00 
0.0000000e+00 0.0000000e+00 0.0000000e+00 
-7.0743454e-04 0.0000000e+00 9.6018512e-03 
0.0000000e+00 0.0000000e+00 0.0000000e+00 
-7.0743454e-04 0.0000000e+00 9.6018512e-03 
0.0000000e+00 0.0000000e+00 0.0000000e+00 
-7.3701132e-04 0.0000000e+00 1.0098555e-02 
0.0000000e+00 0.0000000e+00 0.0000000e+00 
-7.3701132e-04 0.0000000e+00 1.0098555e-02 
0.0000000e+00 0.0000000e+00 0.0000000e+00 
-7.6534387e-04 0.0000000e+00 1.0589313e-02 
0.0000000e+00 0.0000000e+00 0.0000000e+00 
-7.6534387e-04 0.0000000e+00 1.0589313e-02 
0.0000000e+00 0.0000000e+00 0.0000000e+00 
0.0000000e+00 0.0000000e+00 0.0000000e+00 
-7.9243673e-04 0.0000000e+00 1.1074062e-02 
0.0000000e+00 0.0000000e+00 0.0000000e+00 
-7.9243673e-04 0.0000000e+00 1.1074062e-02 
0.0000000e+00 0.0000000e+00 0.0000000e+00 
-8.1832570e-04 0.0000000e+00 1.1552919e-02 
0.0000000e+00 0.0000000e+00 0.0000000e+00 
-8.1832570e-04 0.0000000e+00 1.1552919e-02 
0.0000000e+00 0.0000000e+00 0.0000000e+00 
0.0000000e+00 0.0000000e+00 0.0000000e+00 
-8.4301532e-04 0.0000000e+00 1.2025851e-02 
-8.4301532e-04 0.0000000e+00 1.2025851e-02 
0.0000000e+00 0.0000000e+00 0.0000000e+00 
0.0000000e+00 0.0000000e+00 0.0000000e+00 
-8.6647272e-04 0.0000000e+00 1.2492608e-02 
-8.6647272e-04 0.0000000e+00 1.2492608e-02 
0.0000000e+00 0.0000000e+00 0.0000000e+00 
0.0000000e+00 0.0000000e+00 0.0000000e+00 
-8.8869633e-04 0.0000000e+00 1.2953092e-02 
-8.8869633e-04 0.0000000e+00 1.2953092e-02 
0.0000000e+00 0.0000000e+00 0.0000000e+00 
0.0000000e+00 0.0000000e+00 0.0000000e+00 
-9.0972165e-04 0.0000000e+00 1.3407418e-02 
-9.0972165e-04 0.0000000e+00 1.3407418e-02 
0.0000000e+00 0.0000000e+00 0.0000000e+00 
0.0000000e+00 0.0000000e+00 0.0000000e+00 
-9.2955336e-04 0.0000000e+00 1.3855549e-02 
-9.2955336e-04 0.0000000e+00 1.3855549e-02 
0.0000000e+00 0.0000000e+00 0.0000000e+00 
0.0000000e+00 0.0000000e+00 0.0000000e+00 
-9.4816821e-04 0.0000000e+00 1.4297263e-02 
0.0000000e+00 0.0000000e+00 0.0000000e+00 
-9.4816821e-04 0.0000000e+00 1.4297263e-02 
0.0000000e+00 0.0000000e+00 0.0000000e+00 
-4.2369504e-05 0.0000000e+00 8.4170109e-04 
-9.6557423e-04 0.0000000e+00 1.4732498e-02 
-4.2369504e-05 0.0000000e+00 8.4170109e-04 
-9.6557423e-04 0.0000000e+00 1.4732498e-02 
-8.0539436e-05 0.0000000e+00 1.7222294e-03 
-9.8180751e-04 0.0000000e+00 1.5161380e-02 
-8.0539436e-05 0.0000000e+00 1.7222294e-03 
-9.8180751e-04 0.0000000e+00 1.5161380e-02 
-1.1620842e-04 0.0000000e+00 2.6094857e-03 
-1.1620842e-04 0.0000000e+00 2.6094857e-03 
-9.9687638e-04 0.0000000e+00 1.5583881e-02 
-9.9687638e-04 0.0000000e+00 1.5583881e-02 
-1.5022006e-04 0.0000000e+00 3.4907129e-03 
-1.5022006e-04 0.0000000e+00 3.4907129e-03 
-1.0107571e-03 0.0000000e+00 1.5999759e-02 
-1.0107571e-03 0.0000000e+00 1.5999759e-02 
-1.8255708e-04 0.0000000e+00 4.3658117e-03 
-1.8255708e-04 0.0000000e+00 4.3658117e-03 
-1.0234507e-03 0.0000000e+00 1.6408916e-02 
-1.0234507e-03 0.0000000e+00 1.6408916e-02 
-2.1309656e-04 0.0000000e+00 5.2342995e-03 
-2.1309656e-04 0.0000000e+00 5.2342995e-03 
-1.0349866e-03 0.0000000e+00 1.6811430e-02 
-1.0349866e-03 0.0000000e+00 1.6811430e-02 
-2.4164642e-04 0.0000000e+00 6.0953803e-03 
-2.4164642e-04 0.0000000e+00 6.0953803e-03 
-1.0453710e-03 0.0000000e+00 1.7207248e-02 
-1.0453710e-03 0.0000000e+00 1.7207248e-02 
-2.6806650e-04 0.0000000e+00 6.9484370e-03 
-2.6806650e-04 0.0000000e+00 6.9484370e-03 
-1.0545916e-03 0.0000000e+00 1.7596181e-02 
-2.9225755e-04 0.0000000e+00 7.7929721e-03 
-1.0545916e-03 0.0000000e+00 1.7596181e-02 
-2.9225755e-04 0.0000000e+00 7.7929721e-03 
-3.1413165e-04 0.0000000e+00 8.6285213e-03 
-1.0626594e-03 0.0000000e+00 1.7978162e-02 
-3.1413165e-04 0.0000000e+00 8.6285213e-03 
-1.0626594e-03 0.0000000e+00 1.7978162e-02 
-3.3362811e-04 0.0000000e+00 9.4546985e-03 
-1.0696022e-03 0.0000000e+00 1.8353260e-02 
-3.3362811e-04 0.0000000e+00 9.4546985e-03 
-1.0696022e-03 0.0000000e+00 1.8353260e-02 
-3.5071950e-04 0.0000000e+00 1.0271232e-02 
-3.5071950e-04 0.0000000e+00 1.0271232e-02 
-1.0754296e-03 0.0000000e+00 1.8721432e-02 
-1.0754296e-03 0.0000000e+00 1.8721432e-02 
-3.6540478e-04 0.0000000e+00 1.1077967e-02 
-3.6540478e-04 0.0000000e+00 1.1077967e-02 
-1.0801319e-03 0.0000000e+00 1.9082485e-02 
-1.0801319e-03 0.0000000e+00 1.9082485e-02 
-3.7765762e-04 0.0000000e+00 1.1874625e-02 
-3.7765762e-04 0.0000000e+00 1.1874625e-02 
-1.0837171e-03 0.0000000e+00 1.9436325e-02 
-1.0837171e-03 0.0000000e+00 1.9436325e-02 
-3.8743361e-04 0.0000000e+00 1.2660833e-02 
-3.8743361e-04 0.0000000e+00 1.2660833e-02 
-1.0862098e-03 0.0000000e+00 1.9782994e-02 
-1.0862098e-03 0.0000000e+00 1.9782994e-02 
-3.9472338e-04 0.0000000e+00 1.3436337e-02 
-3.9472338e-04 0.0000000e+00 1.3436337e-02 
-1.0876189e-03 0.0000000e+00 2.0122430e-02 
-1.0876189e-03 0.0000000e+00 2.0122430e-02 
-3.9953210e-04 0.0000000e+00 1.4200955e-02 
-3.9953210e-04 0.0000000e+00 1.4200955e-02 
-1.0879454e-03 0.0000000e+00 2.0454479e-02 
-1.0879454e-03 0.0000000e+00 2.0454479e-02 
-4.0185198e-04 0.0000000e+00 1.4954429e-02 
-4.0185198e-04 0.0000000e+00 1.4954429e-02 
-1.0872059e-03 0.0000000e+00 2.0779097e-02 
-1.0872059e-03 0.0000000e+00 2.0779097e-02 
-4.0167803e-04 0.0000000e+00 1.5696488e-02 
-4.0167803e-04 0.0000000e+00 1.5696488e-02 
-1.0854253e-03 0.0000000e+00 2.1096316e-02 
-3.9902992e-04 0.0000000e+00 1.6426965e-02 
-1.0854253e-03 0.0000000e+00 2.1096316e-02 
-3.9902992e-04 0.0000000e+00 1.6426965e-02 
-1.0826160e-03 0.0000000e+00 2.1406079e-02 
-3.9394536e-04 0.0000000e+00 1.7145777e-02 
-1.0826160e-03 0.0000000e+00 2.1406079e-02 
-3.9394536e-04 0.0000000e+00 1.7145777e-02 
-3.8644303e-04 0.0000000e+00 1.7852752e-02 
-1.0787812e-03 0.0000000e+00 2.1708239e-02 
-3.8644303e-04 0.0000000e+00 1.7852752e-02 
-1.0787812e-03 0.0000000e+00 2.1708239e-02 
-3.7652952e-04 0.0000000e+00 1.8547617e-02 
-3.7652952e-04 0.0000000e+00 1.8547617e-02 
-1.0739357e-03 0.0000000e+00 2.2002724e-02 
-1.0739357e-03 0.0000000e+00 2.2002724e-02 
-3.6423098e-04 0.0000000e+00 1.9230194e-02 
-3.6423098e-04 0.0000000e+00 1.9230194e-02 
-1.0681028e-03 0.0000000e+00 2.2289543e-02 
-1.0681028e-03 0.0000000e+00 2.2289543e-02 
-3.4958045e-04 0.0000000e+00 1.9900329e-02 
-3.4958045e-04 0.0000000e+00 1.9900329e-02 
-1.0612960e-03 0.0000000e+00 2.2568635e-02 
-1.0612960e-03 0.0000000e+00 2.2568635e-02 
-3.3260592e-04 0.0000000e+00 2.0557829e-02 
-3.3260592e-04 0.0000000e+00 2.0557829e-02 
-1.0535264e-03 0.0000000e+00 2.2839882e-02 
-1.0535264e-03 0.0000000e+00 2.2839882e-02 
-3.1334133e-04 0.0000000e+00 2.1202513e-02 
-3.1334133e-04 0.0000000e+00 2.1202513e-02 
-1.0448151e-03 0.0000000e+00 2.3103247e-02 
-1.0448151e-03 0.0000000e+00 2.3103247e-02 
-2.9183054e-04 0.0000000e+00 2.1834243e-02 
-2.9183054e-04 0.0000000e+00 2.1834243e-02 
-1.0351867e-03 0.0000000e+00 2.3358741e-02 
-1.0351867e-03 0.0000000e+00 2.3358741e-02 
-2.6812531e-04 0.0000000e+00 2.2452930e-02 
-2.6812531e-04 0.0000000e+00 2.2452930e-02 
-1.0246587e-03 0.0000000e+00 2.3606316e-02 
-1.0246587e-03 0.0000000e+00 2.3606316e-02 
-2.4227212e-04 0.0000000e+00 2.3058433e-02 
-2.4227212e-04 0.0000000e+00 2.3058433e-02 
-1.0132447e-03 0.0000000e+00 2.3845861e-02 
-1.0132447e-03 0.0000000e+00 2.3845861e-02 
-2.1431395e-04 0.0000000e+00 2.3650582e-02 
-2.1431395e-04 0.0000000e+00 2.3650582e-02 
-1.0009645e-03 0.0000000e+00 2.4077318e-02 
-1.0009645e-03 0.0000000e+00 2.4077318e-02 
-1.8430014e-04 0.0000000e+00 2.4229223e-02 
-1.8430014e-04 0.0000000e+00 2.4229223e-02 
-9.8784211e-04 0.0000000e+00 2.4300679e-02 
-9.8784211e-04 0.0000000e+00 2.4300679e-02 
-1.5228148e-04 0.0000000e+00 2.4794196e-02 
-1.5228148e-04 0.0000000e+00 2.4794196e-02 
-9.7389755e-04 0.0000000e+00 2.4515899e-02 
-9.7389755e-04 0.0000000e+00 2.4515899e-02 
-1.1831364e-04 0.0000000e+00 2.5345362e-02 
-1.1831364e-04 0.0000000e+00 2.5345362e-02 
-9.5914964e-04 0.0000000e+00 2.4722894e-02 
-8.2459284e-05 0.0000000e+00 2.5882621e-02 
-9.5914964e-04 0.0000000e+00 2.4722894e-02 
-8.2459284e-05 0.0000000e+00 2.5882621e-02 
-4.4780644e-05 0.0000000e+00 2.6405857e-02 
-9.4362225e-04 0.0000000e+00 2.4921627e-02 
-4.4780644e-05 0.0000000e+00 2.6405857e-02 
-9.4362225e-04 0.0000000e+00 2.4921627e-02 
-5.3419908e-06 0.0000000e+00 2.6914952e-02 
-9.2734073e-04 0.0000000e+00 2.5112087e-02 
-5.3419908e-06 0.0000000e+00 2.6914952e-02 
-9.2734073e-04 0.0000000e+00 2.5112087e-02 
3.5788247e-05 0.0000000e+00 2.7409814e-02 
3.5788247e-05 0.0000000e+00 2.7409814e-02 
-9.1032789e-04 0.0000000e+00 2.5294244e-02 
-9.1032789e-04 0.0000000e+00 2.5294244e-02 
7.8539323e-05 0.0000000e+00 2.7890361e-02 
7.8539323e-05 0.0000000e+00 2.7890361e-02 
-8.9260513e-04 0.0000000e+00 2.5468022e-02 
-8.9260513e-04 0.0000000e+00 2.5468022e-02 
1.2284326e-04 0.0000000e+00 2.8356475e-02 
1.2284326e-04 0.0000000e+00 2.8356475e-02 
-8.7419597e-04 0.0000000e+00 2.5633374e-02 
-8.7419597e-04 0.0000000e+00 2.5633374e-02 
1.6863299e-04 0.0000000e+00 2.8807989e-02 
1.6863299e-04 0.0000000e+00 2.8807989e-02 
-8.5512601e-04 0.0000000e+00 2.5790278e-02 
-8.5512601e-04 0.0000000e+00 2.5790278e-02 
2.1583287e-04 0.0000000e+00 2.9244802e-02 
2.1583287e-04 0.0000000e+00 2.9244802e-02 
-8.3542010e-04 0.0000000e+00 2.5938699e-02 
-8.3542010e-04 0.0000000e+00 2.5938699e-02 
2.6436131e-04 0.0000000e+00 2.9666884e-02 
2.6436131e-04 0.0000000e+00 2.9666884e-02 
-8.1510267e-04 0.0000000e+00 2.6078584e-02 
-8.1510267e-04 0.0000000e+00 2.6078584e-02 
3.1414229e-04 0.0000000e+00 3.0074131e-02 
3.1414229e-04 0.0000000e+00 3.0074131e-02 
-7.9419987e-04 0.0000000e+00 2.6209891e-02 
-7.9419987e-04 0.0000000e+00 2.6209891e-02 
3.6509948e-04 0.0000000e+00 3.0466374e-02 
3.6509948e-04 0.0000000e+00 3.0466374e-02 
-7.7273898e-04 0.0000000e+00 2.6332605e-02 
-7.7273898e-04 0.0000000e+00 2.6332605e-02 
4.1714420e-04 0.0000000e+00 3.0843564e-02 
4.1714420e-04 0.0000000e+00 3.0843564e-02 
-7.5074727e-04 0.0000000e+00 2.6446708e-02 
-7.5074727e-04 0.0000000e+00 2.6446708e-02 
4.7018383e-04 0.0000000e+00 3.1205786e-02 
4.7018383e-04 0.0000000e+00 3.1205786e-02 
-7.2825164e-04 0.0000000e+00 2.6552167e-02 
-7.2825164e-04 0.0000000e+00 2.6552167e-02 
5.2413408e-04 0.0000000e+00 3.1552997e-02 
5.2413408e-04 0.0000000e+00 3.1552997e-02 
-7.0527930e-04 0.0000000e+00 2.6648947e-02 
-7.0527930e-04 0.0000000e+00 2.6648947e-02 
5.7890662e-04 0.0000000e+00 3.1885062e-02 
5.7890662e-04 0.0000000e+00 3.1885062e-02 
-6.8185822e-04 0.0000000e+00 2.6737029e-02 
-6.8185822e-04 0.0000000e+00 2.6737029e-02 
6.3440028e-04 0.0000000e+00 3.2202090e-02 
6.3440028e-04 0.0000000e+00 3.2202090e-02 
-6.5801711e-04 0.0000000e+00 2.6816401e-02 
-6.5801711e-04 0.0000000e+00 2.6816401e-02 
6.9024252e-04 0.0000000e+00 3.2502948e-02 
6.9024252e-04 0.0000000e+00 3.2502948e-02 
-6.3371204e-04 0.0000000e+00 2.6887248e-02 
-6.3371204e-04 0.0000000e+00 2.6887248e-02 
7.5794715e-04 0.0000000e+00 3.2844955e-02 
7.5794715e-04 0.0000000e+00 3.2844955e-02 
-6.0406632e-04 0.0000000e+00 2.6960647e-02 
-6.0406632e-04 0.0000000e+00 2.6960647e-02 
8.4000728e-04 0.0000000e+00 3.3228133e-02 
8.4000728e-04 0.0000000e+00 3.3228133e-02 
-5.6786887e-04 0.0000000e+00 2.7031982e-02 
-5.6786887e-04 0.0000000e+00 2.7031982e-02 
9.3934197e-04 0.0000000e+00 3.3648999e-02 
9.3934197e-04 0.0000000e+00 3.3648999e-02 
-5.2410625e-04 0.0000000e+00 2.7093059e-02 
-5.2410625e-04 0.0000000e+00 2.7093059e-02 
1.0446205e-03 0.0000000e+00 3.4046468e-02 
1.0446205e-03 0.0000000e+00 3.4046468e-02 
-4.7964748e-04 0.0000000e+00 2.7128348e-02 
-4.7964748e-04 0.0000000e+00 2.7128348e-02 
1.1500496e-03 0.0000000e+00 3.4396296e-02 
1.1500496e-03 0.0000000e+00 3.4396296e-02 
-4.3463906e-04 0.0000000e+00 2.7137593e-02 
-4.3463906e-04 0.0000000e+00 2.7137593e-02 
1.2551393e-03 0.0000000e+00 3.4698179e-02 
1.2551393e-03 0.0000000e+00 3.4698179e-02 
-3.8923076e-04 0.0000000e+00 2.7120766e-02 
-3.8923076e-04 0.0000000e+00 2.7120766e-02 
1.3593908e-03 0.0000000e+00 3.4952027e-02 
1.3593908e-03 0.0000000e+00 3.4952027e-02 
-3.4357355e-04 0.0000000e+00 2.7077850e-02 
-3.4357355e-04 0.0000000e+00 2.7077850e-02 
1.4623054e-03 0.0000000e+00 3.5157839e-02 
1.4623054e-03 0.0000000e+00 3.5157839e-02 
-2.9782408e-04 0.0000000e+00 2.7008716e-02 
-2.9782408e-04 0.0000000e+00 2.7008716e-02 
1.5633897e-03 0.0000000e+00 3.5315780e-02 
1.5633897e-03 0.0000000e+00 3.5315780e-02 
-2.5213196e-04 0.0000000e+00 2.6913447e-02 
-2.5213196e-04 0.0000000e+00 2.6913447e-02 
1.6621608e-03 0.0000000e+00 3.5426111e-02 
1.6621608e-03 0.0000000e+00 3.5426111e-02 
-2.0664716e-04 0.0000000e+00 2.6792030e-02 