# vtk DataFile Version 4.0
vtk output
ASCII
DATASET UNSTRUCTURED_GRID
POINTS 824 float
-6.4148600e-05 1.0000000e-02 -4.4525366e-03 
-1.0680180e-04 1.0000000e-02 -2.8088474e-03 
3.4513260e-04 1.0000000e-02 -6.0450544e-03 
1.3803532e-03 1.0000000e-02 -7.3230534e-03 
6.5829700e-05 1.0000000e-02 -1.1736922e-03 
2.7142144e-03 1.0000000e-02 -8.2851896e-03 
5.0392030e-04 1.0000000e-02 6.5784910e-04 
4.1780764e-03 1.0000000e-02 -9.0342357e-03 
1.1628646e-03 1.0000000e-02 2.4220088e-03 
5.7070961e-03 1.0000000e-02 -9.6390187e-03 
2.0046218e-03 1.0000000e-02 4.1066196e-03 
7.2731595e-03 1.0000000e-02 -1.0140047e-02 
-6.4148600e-05 0.0000000e+00 -4.4525366e-03 
-1.0680180e-04 0.0000000e+00 -2.8088474e-03 
3.4513260e-04 0.0000000e+00 -6.0450544e-03 
1.3803532e-03 0.0000000e+00 -7.3230534e-03 
6.5829700e-05 0.0000000e+00 -1.1736922e-03 
2.9952540e-03 1.0000000e-02 5.7082181e-03 
8.8622628e-03 1.0000000e-02 -1.0562311e-02 
2.7142144e-03 0.0000000e+00 -8.2851896e-03 
5.0392030e-04 0.0000000e+00 6.5784910e-04 
4.1780764e-03 0.0000000e+00 -9.0342357e-03 
1.1628646e-03 0.0000000e+00 2.4220088e-03 
1.0466628e-02 1.0000000e-02 -1.0922252e-02 
4.1067238e-03 1.0000000e-02 7.2284501e-03 
5.7070961e-03 0.0000000e+00 -9.6390187e-03 
2.0046218e-03 0.0000000e+00 4.1066196e-03 
7.2731595e-03 0.0000000e+00 -1.0140047e-02 
1.2081579e-02 1.0000000e-02 -1.1231240e-02 
5.3166988e-03 1.0000000e-02 8.6715129e-03 
2.9952540e-03 0.0000000e+00 5.7082181e-03 
8.8622628e-03 0.0000000e+00 -1.0562311e-02 
1.3704120e-02 1.0000000e-02 -1.1497501e-02 
1.0466628e-02 0.0000000e+00 -1.0922252e-02 
4.1067238e-03 0.0000000e+00 7.2284501e-03 
6.6076374e-03 1.0000000e-02 1.0042624e-02 
1.5332244e-02 1.0000000e-02 -1.1727173e-02 
1.2081579e-02 0.0000000e+00 -1.1231240e-02 
5.3166988e-03 0.0000000e+00 8.6715129e-03 
7.9658343e-03 1.0000000e-02 1.1347144e-02 
1.3704120e-02 0.0000000e+00 -1.1497501e-02 
1.6964543e-02 1.0000000e-02 -1.1925002e-02 
6.6076374e-03 0.0000000e+00 1.0042624e-02 
9.3804686e-03 1.0000000e-02 1.2590236e-02 
1.5332244e-02 0.0000000e+00 -1.1727173e-02 
1.8600004e-02 1.0000000e-02 -1.2094716e-02 
7.9658343e-03 0.0000000e+00 1.1347144e-02 
1.6964543e-02 0.0000000e+00 -1.1925002e-02 
1.0843002e-02 1.0000000e-02 1.3776601e-02 
2.0237876e-02 1.0000000e-02 -1.2239318e-02 
9.3804686e-03 0.0000000e+00 1.2590236e-02 
1.8600004e-02 0.0000000e+00 -1.2094716e-02 
1.2346566e-02 1.0000000e-02 1.4910517e-02 
2.1877591e-02 1.0000000e-02 -1.2361246e-02 
1.0843002e-02 0.0000000e+00 1.3776601e-02 
2.0237876e-02 0.0000000e+00 -1.2239318e-02 
1.3885623e-02 1.0000000e-02 1.5995768e-02 
2.3518711e-02 1.0000000e-02 -1.2462540e-02 
1.2346566e-02 0.0000000e+00 1.4910517e-02 
2.1877591e-02 0.0000000e+00 -1.2361246e-02 
2.5160890e-02 1.0000000e-02 -1.2544903e-02 
1.5455654e-02 1.0000000e-02 1.7035707e-02 
1.3885623e-02 0.0000000e+00 1.5995768e-02 
2.3518711e-02 0.0000000e+00 -1.2462540e-02 
2.6803852e-02 1.0000000e-02 -1.2609772e-02 
1.7052912e-02 1.0000000e-02 1.8033321e-02 
2.5160890e-02 0.0000000e+00 -1.2544903e-02 
1.5455654e-02 0.0000000e+00 1.7035707e-02 
2.8447376e-02 1.0000000e-02 -1.2658389e-02 
2.6803852e-02 0.0000000e+00 -1.2609772e-02 
1.7052912e-02 0.0000000e+00 1.8033321e-02 
1.8674284e-02 1.0000000e-02 1.8991246e-02 
3.0091279e-02 1.0000000e-02 -1.2691814e-02 
2.8447376e-02 0.0000000e+00 -1.2658389e-02 
1.8674284e-02 0.0000000e+00 1.8991246e-02 
2.0317149e-02 1.0000000e-02 1.9911822e-02 
3.0091279e-02 0.0000000e+00 -1.2691814e-02 
3.1735410e-02 1.0000000e-02 -1.2710971e-02 
2.0317149e-02 0.0000000e+00 1.9911822e-02 
2.1979295e-02 1.0000000e-02 2.0797113e-02 
3.1735410e-02 0.0000000e+00 -1.2710971e-02 
3.3379643e-02 1.0000000e-02 -1.2716676e-02 
2.1979295e-02 0.0000000e+00 2.0797113e-02 
2.3658832e-02 1.0000000e-02 2.1648949e-02 
3.3379643e-02 0.0000000e+00 -1.2716676e-02 
3.5023871e-02 1.0000000e-02 -1.2709629e-02 
2.3658832e-02 0.0000000e+00 2.1648949e-02 
2.5354100e-02 1.0000000e-02 2.2469029e-02 
3.5023871e-02 0.0000000e+00 -1.2709629e-02 
3.6668001e-02 1.0000000e-02 -1.2690457e-02 
2.5354100e-02 0.0000000e+00 2.2469029e-02 
2.7063712e-02 1.0000000e-02 2.3258772e-02 
3.6668001e-02 0.0000000e+00 -1.2690457e-02 
3.8312016e-02 1.0000000e-02 -1.2663038e-02 
2.7063712e-02 0.0000000e+00 2.3258772e-02 
3.8312016e-02 0.0000000e+00 -1.2663038e-02 
2.8786417e-02 1.0000000e-02 2.4019532e-02 
3.9956032e-02 1.0000000e-02 -1.2635752e-02 
2.8786417e-02 0.0000000e+00 2.4019532e-02 
3.9956032e-02 0.0000000e+00 -1.2635752e-02 
3.0521135e-02 1.0000000e-02 2.4752486e-02 
4.1600048e-02 1.0000000e-02 -1.2608467e-02 
3.0521135e-02 0.0000000e+00 2.4752486e-02 
4.1600048e-02 0.0000000e+00 -1.2608467e-02 
3.2266919e-02 1.0000000e-02 2.5458676e-02 
4.3299814e-02 1.0000000e-02 -1.2580255e-02 
3.2266919e-02 0.0000000e+00 2.5458676e-02 
4.3299814e-02 0.0000000e+00 -1.2580255e-02 
3.4022902e-02 1.0000000e-02 2.6139111e-02 
4.5339533e-02 1.0000000e-02 -1.2546402e-02 
3.4022902e-02 0.0000000e+00 2.6139111e-02 
4.5339533e-02 0.0000000e+00 -1.2546402e-02 
3.5788340e-02 1.0000000e-02 2.6794623e-02 
4.7787196e-02 1.0000000e-02 -1.2505778e-02 
3.5788340e-02 0.0000000e+00 2.6794623e-02 
3.7562554e-02 1.0000000e-02 2.7425996e-02 
4.7787196e-02 0.0000000e+00 -1.2505778e-02 
3.7562554e-02 0.0000000e+00 2.7425996e-02 
3.9344928e-02 1.0000000e-02 2.8033950e-02 
5.0379113e-02 1.0000000e-02 -1.2462760e-02 
3.9344928e-02 0.0000000e+00 2.8033950e-02 
5.0379113e-02 0.0000000e+00 -1.2462760e-02 
4.1134916e-02 1.0000000e-02 2.8619109e-02 
5.2971029e-02 1.0000000e-02 -1.2419741e-02 
4.1134916e-02 0.0000000e+00 2.8619109e-02 
5.2971029e-02 0.0000000e+00 -1.2419741e-02 
4.2932026e-02 1.0000000e-02 2.9182016e-02 
4.2932026e-02 0.0000000e+00 2.9182016e-02 
5.5562946e-02 1.0000000e-02 -1.2376723e-02 
4.5339682e-02 1.0000000e-02 2.9899231e-02 
5.5562946e-02 0.0000000e+00 -1.2376723e-02 
4.5339682e-02 0.0000000e+00 2.9899231e-02 
5.8154863e-02 1.0000000e-02 -1.2333705e-02 
4.7758221e-02 1.0000000e-02 3.0578844e-02 
5.8154863e-02 0.0000000e+00 -1.2333705e-02 
4.7758221e-02 0.0000000e+00 3.0578844e-02 
6.0746779e-02 1.0000000e-02 -1.2290686e-02 
5.0186760e-02 1.0000000e-02 3.1221807e-02 
6.0746779e-02 0.0000000e+00 -1.2290686e-02 
5.0186760e-02 0.0000000e+00 3.1221807e-02 
6.3338696e-02 1.0000000e-02 -1.2247668e-02 
5.2624513e-02 1.0000000e-02 3.1828903e-02 
6.3338696e-02 0.0000000e+00 -1.2247668e-02 
5.2624513e-02 0.0000000e+00 3.1828903e-02 
5.5070762e-02 1.0000000e-02 3.2400804e-02 
6.5930613e-02 1.0000000e-02 -1.2204650e-02 
5.5070762e-02 0.0000000e+00 3.2400804e-02 
6.5930613e-02 0.0000000e+00 -1.2204650e-02 
5.7524847e-02 1.0000000e-02 3.2938082e-02 
6.8522529e-02 1.0000000e-02 -1.2161631e-02 
5.7524847e-02 0.0000000e+00 3.2938082e-02 
6.8522529e-02 0.0000000e+00 -1.2161631e-02 
5.9986169e-02 1.0000000e-02 3.3441170e-02 
7.1114446e-02 1.0000000e-02 -1.2118613e-02 
5.9986169e-02 0.0000000e+00 3.3441170e-02 
7.1114446e-02 0.0000000e+00 -1.2118613e-02 
6.2454163e-02 1.0000000e-02 3.3910436e-02 
6.2454163e-02 0.0000000e+00 3.3910436e-02 
7.3706362e-02 1.0000000e-02 -1.2075595e-02 
7.3706362e-02 0.0000000e+00 -1.2075595e-02 
6.4928303e-02 1.0000000e-02 3.4346139e-02 
6.4928303e-02 0.0000000e+00 3.4346139e-02 
7.6298279e-02 1.0000000e-02 -1.2032577e-02 
7.6298279e-02 0.0000000e+00 -1.2032577e-02 
6.7408092e-02 1.0000000e-02 3.4748446e-02 
6.7408092e-02 0.0000000e+00 3.4748446e-02 
7.8890196e-02 1.0000000e-02 -1.1989558e-02 
7.8890196e-02 0.0000000e+00 -1.1989558e-02 
6.9893057e-02 1.0000000e-02 3.5117436e-02 
6.9893057e-02 0.0000000e+00 3.5117436e-02 
8.1482112e-02 1.0000000e-02 -1.1946540e-02 
8.1482112e-02 0.0000000e+00 -1.1946540e-02 
7.2382742e-02 1.0000000e-02 3.5453098e-02 
7.2382742e-02 0.0000000e+00 3.5453098e-02 
8.4074029e-02 1.0000000e-02 -1.1903522e-02 
7.4876707e-02 1.0000000e-02 3.5755332e-02 
8.4074029e-02 0.0000000e+00 -1.1903522e-02 
7.4876707e-02 0.0000000e+00 3.5755332e-02 
8.6665946e-02 1.0000000e-02 -1.1860503e-02 
7.7374516e-02 1.0000000e-02 3.6023948e-02 
8.6665946e-02 0.0000000e+00 -1.1860503e-02 
7.7374516e-02 0.0000000e+00 3.6023948e-02 
8.9257862e-02 1.0000000e-02 -1.1817485e-02 
7.9875738e-02 1.0000000e-02 3.6258665e-02 
8.9257862e-02 0.0000000e+00 -1.1817485e-02 
7.9875738e-02 0.0000000e+00 3.6258665e-02 
8.2379940e-02 1.0000000e-02 3.6459105e-02 
9.1849779e-02 1.0000000e-02 -1.1774467e-02 
8.2379940e-02 0.0000000e+00 3.6459105e-02 
9.1849779e-02 0.0000000e+00 -1.1774467e-02 
8.4886681e-02 1.0000000e-02 3.6624786e-02 
9.4441696e-02 1.0000000e-02 -1.1731448e-02 
8.4886681e-02 0.0000000e+00 3.6624786e-02 
9.4441696e-02 0.0000000e+00 -1.1731448e-02 
8.7395510e-02 1.0000000e-02 3.6755108e-02 
8.7395510e-02 0.0000000e+00 3.6755108e-02 
9.7033612e-02 1.0000000e-02 -1.1688430e-02 
9.7033612e-02 0.0000000e+00 -1.1688430e-02 
8.9905951e-02 1.0000000e-02 3.6849401e-02 
8.9905951e-02 0.0000000e+00 3.6849401e-02 
9.9625529e-02 1.0000000e-02 -1.1645412e-02 
9.9625529e-02 0.0000000e+00 -1.1645412e-02 
9.2417505e-02 1.0000000e-02 3.6906832e-02 
9.2417505e-02 0.0000000e+00 3.6906832e-02 
1.0221745e-01 1.0000000e-02 -1.1602393e-02 
1.0221745e-01 0.0000000e+00 -1.1602393e-02 
9.4929640e-02 1.0000000e-02 3.6926425e-02 
9.4929640e-02 0.0000000e+00 3.6926425e-02 
1.0480936e-01 1.0000000e-02 -1.1559375e-02 
1.0480936e-01 0.0000000e+00 -1.1559375e-02 
9.7441776e-02 1.0000000e-02 3.6907077e-02 
9.7441776e-02 0.0000000e+00 3.6907077e-02 
1.0740128e-01 1.0000000e-02 -1.1516357e-02 
1.0740128e-01 0.0000000e+00 -1.1516357e-02 
9.9953281e-02 1.0000000e-02 3.6847529e-02 
9.9953281e-02 0.0000000e+00 3.6847529e-02 
1.0999320e-01 1.0000000e-02 -1.1473339e-02 
1.0246345e-01 1.0000000e-02 3.6746314e-02 
1.0999320e-01 0.0000000e+00 -1.1473339e-02 
1.0246345e-01 0.0000000e+00 3.6746314e-02 
1.0497150e-01 1.0000000e-02 3.6601738e-02 
1.1258511e-01 1.0000000e-02 -1.1430320e-02 
1.0497150e-01 0.0000000e+00 3.6601738e-02 
1.1258511e-01 0.0000000e+00 -1.1430320e-02 
1.0747666e-01 1.0000000e-02 3.6413638e-02 
1.1517703e-01 1.0000000e-02 -1.1387302e-02 
1.0747666e-01 0.0000000e+00 3.6413638e-02 
[...]
POINT_DATA 824
FIELD FieldData 2
DISPLACEMENT 3 824  float
0.0000000e+00 0.0000000e+00 0.0000000e+00 
0.0000000e+00 0.0000000e+00 0.0000000e+00 
0.0000000e+00 0.0000000e+00 0.0000000e+00 
0.0000000e+00 0.0000000e+00 0.0000000e+00 
0.0000000e+00 0.0000000e+00 0.0000000e+00 
0.0000000e+00 0.0000000e+00 0.0000000e+00 
0.0000000e+00 0.0000000e+00 0.0000000e+00 
0.0000000e+00 0.0000000e+00 0.0000000e+00 
0.0000000e+00 0.0000000e+00 0.0000000e+00 
0.0000000e+00 0.0000000e+00 0.0000000e+00 
0.0000000e+00 0.0000000e+00 0.0000000e+00 
0.0000000e+00 0.0000000e+00 0.0000000e+00 
0.0000000e+00 0.0000000e+00 0.0000000e+00 
0.0000000e+00 0.0000000e+00 0.0000000e+00 
0.0000000e+00 0.0000000e+00 0.0000000e+00 
0.0000000e+00 0.0000000e+00 0.0000000e+00 
0.0000000e+00 0.0000000e+00 0.0000000e+00 
0.0000000e+00 0.0000000e+00 0.0000000e+00 
0.0000000e+00 0.0000000e+00 0.0000000e+00 
0.0000000e+00 0.0000000e+00 0.0000000e+00 
0.0000000e+00 0.0000000e+00 0.0000000e+00 
0.0000000e+00 0.0000000e+00 0.0000000e+00 
0.0000000e+00 0.0000000e+00 0.0000000e+00 
0.0000000e+00 0.0000000e+00 0.0000000e+00 
0.0000000e+00 0.0000000e+00 0.0000000e+00 
0.0000000e+00 0.0000000e+00 0.0000000e+00 
0.0000000e+00 0.0000000e+00 0.0000000e+00 
0.0000000e+00 0.0000000e+00 0.0000000e+00 
0.0000000e+00 0.0000000e+00 0.0000000e+00 
0.0000000e+00 0.0000000e+00 0.0000000e+00 
0.0000000e+00 0.0000000e+00 0.0000000e+00 
0.0000000e+00 0.0000000e+00 0.0000000e+00 
0.0000000e+00 0.0000000e+00 0.0000000e+00 
0.0000000e+00 0.0000000e+00 0.0000000e+00 
0.0000000e+00 0.0000000e+00 0.0000000e+00 
0.0000000e+00 0.0000000e+00 0.0000000e+00 
0.0000000e+00 0.0000000e+00 0.0000000e+00 
0.0000000e+00 0.0000000e+00 0.0000000e+00 
0.0000000e+00 0.0000000e+00 0.0000000e+00 
0.0000000e+00 0.0000000e+00 0.0000000e+00 
0.0000000e+00 0.0000000e+00 0.0000000e+00 
0.0000000e+00 0.0000000e+00 0.0000000e+00 
0.0000000e+00 0.0000000e+00 0.0000000e+00 
0.0000000e+00 0.0000000e+00 0.0000000e+00 
0.0000000e+00 0.0000000e+00 0.0000000e+00 
0.0000000e+00 0.0000000e+00 0.0000000e+00 
0.0000000e+00 0.0000000e+00 0.0000000e+00 
0.0000000e+00 0.0000000e+00 0.0000000e+00 
0.0000000e+00 0.0000000e+00 0.0000000e+00 
0.0000000e+00 0.0000000e+00 0.0000000e+00 
0.0000000e+00 0.0000000e+00 0.0000000e+00 
0.0000000e+00 0.0000000e+00 0.0000000e+00 
0.0000000e+00 0.0000000e+00 0.0000000e+00 
0.0000000e+00 0.0000000e+00 0.0000000e+00 
0.0000000e+00 0.0000000e+00 0.0000000e+00 
0.0000000e+00 0.0000000e+00 0.0000000e+00 
0.0000000e+00 0.0000000e+00 0.0000000e+00 
0.0000000e+00 0.0000000e+00 0.0000000e+00 
0.0000000e+00 0.0000000e+00 0.0000000e+00 
0.0000000e+00 0.0000000e+00 0.0000000e+00 
0.0000000e+00 0.0000000e+00 0.0000000e+00 
0.0000000e+00 0.0000000e+00 0.0000000e+00 
0.0000000e+00 0.0000000e+00 0.0000000e+00 
0.0000000e+00 0.0000000e+00 0.0000000e+00 
0.0000000e+00 0.0000000e+00 0.0000000e+00 
0.0000000e+00 0.0000000e+00 0.0000000e+00 
0.0000000e+00 0.0000000e+00 0.0000000e+00 
0.0000000e+00 0.0000000e+00 0.0000000e+00 
0.0000000e+00 0.0000000e+00 0.0000000e+00 
0.0000000e+00 0.0000000e+00 0.0000000e+00 
0.0000000e+00 0.0000000e+00 0.0000000e+00 
0.0000000e+00 0.0000000e+00 0.0000000e+00 
0.0000000e+00 0.0000000e+00 0.0000000e+00 
0.0000000e+00 0.0000000e+00 0.0000000e+00 
0.0000000e+00 0.0000000e+00 0.0000000e+00 
0.0000000e+00 0.0000000e+00 0.0000000e+00 
0.0000000e+00 0.0000000e+00 0.0000000e+00 
0.0000000e+00 0.0000000e+00 0.0000000e+00 
0.0000000e+00 0.0000000e+00 0.0000000e+00 
0.0000000e+00 0.0000000e+00 0.0000000e+00 
0.0000000e+00 0.0000000e+00 0.0000000e+00 
0.0000000e+00 0.0000000e+00 0.0000000e+00 
0.0000000e+00 0.0000000e+00 0.0000000e+00 
0.0000000e+00 0.0000000e+00 0.0000000e+00 
0.0000000e+00 0.0000000e+00 0.0000000e+00 
0.0000000e+00 0.0000000e+00 0.0000000e+00 
0.0000000e+00 0.0000000e+00 0.0000000e+00 
0.0000000e+00 0.0000000e+00 0.0000000e+00 
0.0000000e+00 0.0000000e+00 0.0000000e+00 
0.0000000e+00 0.0000000e+00 0.0000000e+00 
0.0000000e+00 0.0000000e+00 0.0000000e+00 
0.0000000e+00 0.0000000e+00 0.0000000e+00 
0.0000000e+00 0.0000000e+00 0.0000000e+00 
0.0000000e+00 0.0000000e+00 0.0000000e+00 
0.0000000e+00 0.0000000e+00 0.0000000e+00 
0.0000000e+00 0.0000000e+00 0.0000000e+00 
0.0000000e+00 0.0000000e+00 0.0000000e+00 
-3.0845267e-05 0.0000000e+00 3.5679248e-04 
0.0000000e+00 0.0000000e+00 0.0000000e+00 
-3.0845267e-05 0.0000000e+00 3.5679248e-04 
0.0000000e+00 0.0000000e+00 0.0000000e+00 
-6.1460235e-05 0.0000000e+00 7.1260563e-04 
0.0000000e+00 0.0000000e+00 0.0000000e+00 
-6.1460235e-05 0.0000000e+00 7.1260563e-04 
0.0000000e+00 0.0000000e+00 0.0000000e+00 
-9.2838984e-05 0.0000000e+00 1.0793136e-03 
0.0000000e+00 0.0000000e+00 0.0000000e+00 
-9.2838984e-05 0.0000000e+00 1.0793136e-03 
0.0000000e+00 0.0000000e+00 0.0000000e+00 
-1.3008245e-04 0.0000000e+00 1.5176093e-03 
0.0000000e+00 0.0000000e+00 0.0000000e+00 
-1.3008245e-04 0.0000000e+00 1.5176093e-03 
0.0000000e+00 0.0000000e+00 0.0000000e+00 
-1.7412884e-04 0.0000000e+00 2.0408010e-03 
0.0000000e+00 0.0000000e+00 0.0000000e+00 
0.0000000e+00 0.0000000e+00 0.0000000e+00 
-1.7412884e-04 0.0000000e+00 2.0408010e-03 
0.0000000e+00 0.0000000e+00 0.0000000e+00 
0.0000000e+00 0.0000000e+00 0.0000000e+00 
-2.1991386e-04 0.0000000e+00 2.5911473e-03 
0.0000000e+00 0.0000000e+00 0.0000000e+00 
-2.1991386e-04 0.0000000e+00 2.5911473e-03 
0.0000000e+00 0.0000000e+00 0.0000000e+00 
-2.6471047e-04 0.0000000e+00 3.1372260e-03 
0.0000000e+00 0.0000000e+00 0.0000000e+00 
-2.6471047e-04 0.0000000e+00 3.1372260e-03 
0.0000000e+00 0.0000000e+00 0.0000000e+00 
0.0000000e+00 0.0000000e+00 0.0000000e+00 
-3.0841813e-04 0.0000000e+00 3.6785738e-03 
0.0000000e+00 0.0000000e+00 0.0000000e+00 
-3.0841813e-04 0.0000000e+00 3.6785738e-03 
0.0000000e+00 0.0000000e+00 0.0000000e+00 
-3.5093768e-04 0.0000000e+00 4.2147054e-03 
0.0000000e+00 0.0000000e+00 0.0000000e+00 
-3.5093768e-04 0.0000000e+00 4.2147054e-03 
0.0000000e+00 0.0000000e+00 0.0000000e+00 
-3.9221314e-04 0.0000000e+00 4.7453135e-03 
0.0000000e+00 0.0000000e+00 0.0000000e+00 
-3.9221314e-04 0.0000000e+00 4.7453135e-03 
0.0000000e+00 0.0000000e+00 0.0000000e+00 
-4.3223784e-04 0.0000000e+00 5.2703204e-03 
0.0000000e+00 0.0000000e+00 0.0000000e+00 
-4.3223784e-04 0.0000000e+00 5.2703204e-03 
0.0000000e+00 0.0000000e+00 0.0000000e+00 
0.0000000e+00 0.0000000e+00 0.0000000e+00 
-4.7098543e-04 0.0000000e+00 5.7895533e-03 
0.0000000e+00 0.0000000e+00 0.0000000e+00 
-4.7098543e-04 0.0000000e+00 5.7895533e-03 
0.0000000e+00 0.0000000e+00 0.0000000e+00 
-5.0841061e-04 0.0000000e+00 6.3027315e-03 
0.0000000e+00 0.0000000e+00 0.0000000e+00 
-5.0841061e-04 0.0000000e+00 6.3027315e-03 
0.0000000e+00 0.0000000e+00 0.0000000e+00 
-5.4449877e-04 0.0000000e+00 6.8097110e-03 
0.0000000e+00 0.0000000e+00 0.0000000e+00 
-5.4449877e-04 0.0000000e+00 6.8097110e-03 
0.0000000e+00 0.0000000e+00 0.0000000e+00 
0.0000000e+00 0.0000000e+00 0.0000000e+00 
-5.7926959e-04 0.0000000e+00 7.3105181e-03 
-5.7926959e-04 0.0000000e+00 7.3105181e-03 
0.0000000e+00 0.0000000e+00 0.0000000e+00 
0.0000000e+00 0.0000000e+00 0.0000000e+00 
-6.1272649e-04 0.0000000e+00 7.8051043e-03 
-6.1272649e-04 0.0000000e+00 7.8051043e-03 
0.0000000e+00 0.0000000e+00 0.0000000e+00 
0.0000000e+00 0.0000000e+00 0.0000000e+00 
-6.4483771e-04 0.0000000e+00 8.2932300e-03 
-6.4483771e-04 0.0000000e+00 8.2932300e-03 
0.0000000e+00 0.0000000e+00 0.0000000e+00 
0.0000000e+00 0.0000000e+00 0.0000000e+00 
-6.7559397e-04 0.0000000e+00 8.7747602e-03 
-6.7559397e-04 0.0000000e+00 8.7747602e-03 
0.0000000e+00 0.0000000e+00 0.0000000e+00 
0.0000000e+00 0.0000000e+00 0.0000000e+00 
-7.0502820e-04 0.0000000e+00 9.2497813e-03 
0.0000000e+00 0.0000000e+00 0.0000000e+00 
-7.0502820e-04 0.0000000e+00 9.2497813e-03 
0.0000000e+00 0.0000000e+00 0.0000000e+00 
-7.3315404e-04 0.0000000e+00 9.7182865e-03 
0.0000000e+00 0.0000000e+00 0.0000000e+00 
-7.3315404e-04 0.0000000e+00 9.7182865e-03 
0.0000000e+00 0.0000000e+00 0.0000000e+00 
-7.5995523e-04 0.0000000e+00 1.0180095e-02 
0.0000000e+00 0.0000000e+00 0.0000000e+00 
-7.5995523e-04 0.0000000e+00 1.0180095e-02 
0.0000000e+00 0.0000000e+00 0.0000000e+00 
0.0000000e+00 0.0000000e+00 0.0000000e+00 
-7.8544048e-04 0.0000000e+00 1.0635146e-02 
0.0000000e+00 0.0000000e+00 0.0000000e+00 
-7.8544048e-04 0.0000000e+00 1.0635146e-02 
0.0000000e+00 0.0000000e+00 0.0000000e+00 
-8.0965240e-04 0.0000000e+00 1.1083580e-02 
0.0000000e+00 0.0000000e+00 0.0000000e+00 
-8.0965240e-04 0.0000000e+00 1.1083580e-02 
0.0000000e+00 0.0000000e+00 0.0000000e+00 
0.0000000e+00 0.0000000e+00 0.0000000e+00 
-8.3261126e-04 0.0000000e+00 1.1525427e-02 
-8.3261126e-04 0.0000000e+00 1.1525427e-02 
0.0000000e+00 0.0000000e+00 0.0000000e+00 
0.0000000e+00 0.0000000e+00 0.0000000e+00 
-8.5429799e-04 0.0000000e+00 1.1960480e-02 
-8.5429799e-04 0.0000000e+00 1.1960480e-02 
0.0000000e+00 0.0000000e+00 0.0000000e+00 
0.0000000e+00 0.0000000e+00 0.0000000e+00 
-8.7471661e-04 0.0000000e+00 1.2388647e-02 
-8.7471661e-04 0.0000000e+00 1.2388647e-02 
0.0000000e+00 0.0000000e+00 0.0000000e+00 
0.0000000e+00 0.0000000e+00 0.0000000e+00 
-8.9390790e-04 0.0000000e+00 1.2810066e-02 
-8.9390790e-04 0.0000000e+00 1.2810066e-02 
0.0000000e+00 0.0000000e+00 0.0000000e+00 
0.0000000e+00 0.0000000e+00 0.0000000e+00 
-9.1188826e-04 0.0000000e+00 1.3224746e-02 
-9.1188826e-04 0.0000000e+00 1.3224746e-02 
0.0000000e+00 0.0000000e+00 0.0000000e+00 
0.0000000e+00 0.0000000e+00 0.0000000e+00 
-9.2864743e-04 0.0000000e+00 1.3632509e-02 
0.0000000e+00 0.0000000e+00 0.0000000e+00 
-9.2864743e-04 0.0000000e+00 1.3632509e-02 
0.0000000e+00 0.0000000e+00 0.0000000e+00 
-4.2831039e-05 0.0000000e+00 8.2486070e-04 
-9.4420173e-04 0.0000000e+00 1.4033325e-02 
-4.2831039e-05 0.0000000e+00 8.2486070e-04 
-9.4420173e-04 0.0000000e+00 1.4033325e-02 
-8.1192841e-05 0.0000000e+00 1.6874208e-03 
-9.5859134e-04 0.0000000e+00 1.4427338e-02 
-8.1192841e-05 0.0000000e+00 1.6874208e-03 
-9.5859134e-04 0.0000000e+00 1.4427338e-02 
-1.1679058e-04 0.0000000e+00 2.5555588e-03 
-1.1679058e-04 0.0000000e+00 2.5555588e-03 
-9.7182983e-04 0.0000000e+00 1.4814534e-02 
-9.7182983e-04 0.0000000e+00 1.4814534e-02 
-1.5047787e-04 0.0000000e+00 3.4165188e-03 
-1.5047787e-04 0.0000000e+00 3.4165188e-03 
-9.8390432e-04 0.0000000e+00 1.5194711e-02 
-9.8390432e-04 0.0000000e+00 1.5194711e-02 
-1.8225270e-04 0.0000000e+00 4.2702351e-03 
-1.8225270e-04 0.0000000e+00 4.2702351e-03 
-9.9482697e-04 0.0000000e+00 1.5567816e-02 
-9.9482697e-04 0.0000000e+00 1.5567816e-02 
-2.1201500e-04 0.0000000e+00 5.1162727e-03 
-2.1201500e-04 0.0000000e+00 5.1162727e-03 
-1.0046298e-03 0.0000000e+00 1.5933943e-02 
-1.0046298e-03 0.0000000e+00 1.5933943e-02 
-2.3959455e-04 0.0000000e+00 5.9538653e-03 
-2.3959455e-04 0.0000000e+00 5.9538653e-03 
-1.0133192e-03 0.0000000e+00 1.6293021e-02 
-1.0133192e-03 0.0000000e+00 1.6293021e-02 
-2.6486652e-04 0.0000000e+00 6.7824042e-03 
-2.6486652e-04 0.0000000e+00 6.7824042e-03 
-1.0208909e-03 0.0000000e+00 1.6644888e-02 
-2.8775369e-04 0.0000000e+00 7.6014302e-03 
-1.0208909e-03 0.0000000e+00 1.6644888e-02 
-2.8775369e-04 0.0000000e+00 7.6014302e-03 
-3.0819941e-04 0.0000000e+00 8.4105555e-03 
-1.0273673e-03 0.0000000e+00 1.6989540e-02 
-3.0819941e-04 0.0000000e+00 8.4105555e-03 
-1.0273673e-03 0.0000000e+00 1.6989540e-02 
-3.2616740e-04 0.0000000e+00 9.2094493e-03 
-1.0327794e-03 0.0000000e+00 1.7327063e-02 
-3.2616740e-04 0.0000000e+00 9.2094493e-03 
-1.0327794e-03 0.0000000e+00 1.7327063e-02 
-3.4164311e-04 0.0000000e+00 9.9978535e-03 
-3.4164311e-04 0.0000000e+00 9.9978535e-03 
-1.0371368e-03 0.0000000e+00 1.7657401e-02 
-1.0371368e-03 0.0000000e+00 1.7657401e-02 
-3.5464000e-04 0.0000000e+00 1.0775639e-02 
-3.5464000e-04 0.0000000e+00 1.0775639e-02 
-1.0404371e-03 0.0000000e+00 1.7980385e-02 
-1.0404371e-03 0.0000000e+00 1.7980385e-02 
-3.6515616e-04 0.0000000e+00 1.1542592e-02 
-3.6515616e-04 0.0000000e+00 1.1542592e-02 
-1.0426970e-03 0.0000000e+00 1.8295973e-02 
-1.0426970e-03 0.0000000e+00 1.8295973e-02 
-3.7317032e-04 0.0000000e+00 1.2298394e-02 
-3.7317032e-04 0.0000000e+00 1.2298394e-02 
-1.0439439e-03 0.0000000e+00 1.8604223e-02 
-1.0439439e-03 0.0000000e+00 1.8604223e-02 
-3.7868620e-04 0.0000000e+00 1.3042812e-02 
-3.7868620e-04 0.0000000e+00 1.3042812e-02 
-1.0441885e-03 0.0000000e+00 1.8905071e-02 
-1.0441885e-03 0.0000000e+00 1.8905071e-02 
-3.8172282e-04 0.0000000e+00 1.3775689e-02 
-3.8172282e-04 0.0000000e+00 1.3775689e-02 
-1.0434379e-03 0.0000000e+00 1.9198395e-02 
-1.0434379e-03 0.0000000e+00 1.9198395e-02 
-3.8229300e-04 0.0000000e+00 1.4496825e-02 
-3.8229300e-04 0.0000000e+00 1.4496825e-02 
-1.0417163e-03 0.0000000e+00 1.9484197e-02 
-1.0417163e-03 0.0000000e+00 1.9484197e-02 
-3.8041163e-04 0.0000000e+00 1.5206003e-02 
-3.8041163e-04 0.0000000e+00 1.5206003e-02 
-1.0390523e-03 0.0000000e+00 1.9762545e-02 
-3.7611158e-04 0.0000000e+00 1.5903091e-02 
-1.0390523e-03 0.0000000e+00 1.9762545e-02 
-3.7611158e-04 0.0000000e+00 1.5903091e-02 
-1.0354626e-03 0.0000000e+00 2.0033406e-02 
-3.6944028e-04 0.0000000e+00 1.6588026e-02 
-1.0354626e-03 0.0000000e+00 2.0033406e-02 
-3.6944028e-04 0.0000000e+00 1.6588026e-02 
-3.6043092e-04 0.0000000e+00 1.7260677e-02 
-1.0309567e-03 0.0000000e+00 2.0296673e-02 
-3.6043092e-04 0.0000000e+00 1.7260677e-02 
-1.0309567e-03 0.0000000e+00 2.0296673e-02 
-3.4910852e-04 0.0000000e+00 1.7920833e-02 
-3.4910852e-04 0.0000000e+00 1.7920833e-02 
-1.0255546e-03 0.0000000e+00 2.0552313e-02 
-1.0255546e-03 0.0000000e+00 2.0552313e-02 
-3.3551323e-04 0.0000000e+00 1.8568362e-02 
-3.3551323e-04 0.0000000e+00 1.8568362e-02 
-1.0192834e-03 0.0000000e+00 2.0800377e-02 
-1.0192834e-03 0.0000000e+00 2.0800377e-02 
-3.1968824e-04 0.0000000e+00 1.9203140e-02 
-3.1968824e-04 0.0000000e+00 1.9203140e-02 
-1.0121628e-03 0.0000000e+00 2.1040853e-02 
-1.0121628e-03 0.0000000e+00 2.1040853e-02 
-3.0167308e-04 0.0000000e+00 1.9825010e-02 
-3.0167308e-04 0.0000000e+00 1.9825010e-02 
-1.0042089e-03 0.0000000e+00 2.1273671e-02 
-1.0042089e-03 0.0000000e+00 2.1273671e-02 
-2.8151511e-04 0.0000000e+00 2.0433846e-02 
-2.8151511e-04 0.0000000e+00 2.0433846e-02 
-9.9544556e-04 0.0000000e+00 2.1498830e-02 
-9.9544556e-04 0.0000000e+00 2.1498830e-02 
-2.5926970e-04 0.0000000e+00 2.1029559e-02 
-2.5926970e-04 0.0000000e+00 2.1029559e-02 
-9.8590013e-04 0.0000000e+00 2.1716386e-02 
-9.8590013e-04 0.0000000e+00 2.1716386e-02 
-2.3499524e-04 0.0000000e+00 2.1612089e-02 
-2.3499524e-04 0.0000000e+00 2.1612089e-02 
-9.7559471e-04 0.0000000e+00 2.1926343e-02 
-9.7559471e-04 0.0000000e+00 2.1926343e-02 
-2.0874474e-04 0.0000000e+00 2.2181318e-02 
-2.0874474e-04 0.0000000e+00 2.2181318e-02 
-9.6454681e-04 0.0000000e+00 2.2128646e-02 
-9.6454681e-04 0.0000000e+00 2.2128646e-02 
-1.8057185e-04 0.0000000e+00 2.2737131e-02 
-1.8057185e-04 0.0000000e+00 2.2737131e-02 
-9.5277804e-04 0.0000000e+00 2.2323275e-02 
-9.5277804e-04 0.0000000e+00 2.2323275e-02 
-1.5053702e-04 0.0000000e+00 2.3279437e-02 
-1.5053702e-04 0.0000000e+00 2.3279437e-02 
-9.4031407e-04 0.0000000e+00 2.2510270e-02 
-9.4031407e-04 0.0000000e+00 2.2510270e-02 
-1.1869778e-04 0.0000000e+00 2.3808118e-02 
-1.1869778e-04 0.0000000e+00 2.3808118e-02 
-9.2717719e-04 0.0000000e+00 2.2689636e-02 
-9.2717719e-04 0.0000000e+00 2.2689636e-02 
-8.5113086e-05 0.0000000e+00 2.4323053e-02 
-8.5113086e-05 0.0000000e+00 2.4323053e-02 
-9.1338772e-04 0.0000000e+00 2.2861340e-02 
-4.9851417e-05 0.0000000e+00 2.4824187e-02 
-9.1338772e-04 0.0000000e+00 2.2861340e-02 
-4.9851417e-05 0.0000000e+00 2.4824187e-02 
-1.2983663e-05 0.0000000e+00 2.5311481e-02 
-8.9896969e-04 0.0000000e+00 2.3025386e-02 
-1.2983663e-05 0.0000000e+00 2.5311481e-02 
-8.9896969e-04 0.0000000e+00 2.3025386e-02 
2.5421618e-05 0.0000000e+00 2.5784865e-02 
-8.8394848e-04 0.0000000e+00 2.3181814e-02 
2.5421618e-05 0.0000000e+00 2.5784865e-02 
-8.8394848e-04 0.0000000e+00 2.3181814e-02 
6.5296264e-05 0.0000000e+00 2.6244265e-02 
6.5296264e-05 0.0000000e+00 2.6244265e-02 
-8.6834695e-04 0.0000000e+00 2.3330641e-02 
-8.6834695e-04 0.0000000e+00 2.3330641e-02 
1.0656799e-04 0.0000000e+00 2.6689632e-02 
1.0656799e-04 0.0000000e+00 2.6689632e-02 
-8.5218595e-04 0.0000000e+00 2.3471838e-02 
-8.5218595e-04 0.0000000e+00 2.3471838e-02 
1.4916403e-04 0.0000000e+00 2.7120920e-02 
1.4916403e-04 0.0000000e+00 2.7120920e-02 
-8.3548773e-04 0.0000000e+00 2.3605398e-02 
-8.3548773e-04 0.0000000e+00 2.3605398e-02 
1.9301499e-04 0.0000000e+00 2.7538020e-02 
1.9301499e-04 0.0000000e+00 2.7538020e-02 
-8.1827608e-04 0.0000000e+00 2.3731347e-02 
-8.1827608e-04 0.0000000e+00 2.3731347e-02 
2.3804828e-04 0.0000000e+00 2.7940841e-02 
2.3804828e-04 0.0000000e+00 2.7940841e-02 
-8.0057327e-04 0.0000000e+00 2.3849684e-02 
-8.0057327e-04 0.0000000e+00 2.3849684e-02 
2.8418520e-04 0.0000000e+00 2.8329376e-02 
2.8418520e-04 0.0000000e+00 2.8329376e-02 
-7.8240100e-04 0.0000000e+00 2.3960395e-02 
-7.8240100e-04 0.0000000e+00 2.3960395e-02 
3.3134871e-04 0.0000000e+00 2.8703589e-02 
3.3134871e-04 0.0000000e+00 2.8703589e-02 
-7.6378273e-04 0.0000000e+00 2.4063488e-02 
-7.6378273e-04 0.0000000e+00 2.4063488e-02 
3.7946307e-04 0.0000000e+00 2.9063374e-02 
3.7946307e-04 0.0000000e+00 2.9063374e-02 
-7.4474197e-04 0.0000000e+00 2.4158984e-02 
-7.4474197e-04 0.0000000e+00 2.4158984e-02 
4.2844608e-04 0.0000000e+00 2.9408690e-02 
4.2844608e-04 0.0000000e+00 2.9408690e-02 
-7.2530063e-04 0.0000000e+00 2.4246883e-02 
-7.2530063e-04 0.0000000e+00 2.4246883e-02 
4.7821244e-04 0.0000000e+00 2.9739627e-02 
4.7821244e-04 0.0000000e+00 2.9739627e-02 
-7.0548065e-04 0.0000000e+00 2.4327168e-02 
-7.0548065e-04 0.0000000e+00 2.4327168e-02 
5.2868098e-04 0.0000000e+00 3.0056204e-02 
5.2868098e-04 0.0000000e+00 3.0056204e-02 
-6.8530507e-04 0.0000000e+00 2.4399844e-02 
-6.8530507e-04 0.0000000e+00 2.4399844e-02 
5.7976792e-04 0.0000000e+00 3.0358353e-02 
5.7976792e-04 0.0000000e+00 3.0358353e-02 
-6.6479677e-04 0.0000000e+00 2.4464928e-02 
-6.6479677e-04 0.0000000e+00 2.4464928e-02 
6.3138290e-04 0.0000000e+00 3.0646178e-02 
6.3138290e-04 0.0000000e+00 3.0646178e-02 
-6.4397805e-04 0.0000000e+00 2.4522419e-02 
-6.4397805e-04 0.0000000e+00 2.4522419e-02 
6.8318536e-04 0.0000000e+00 3.0918656e-02 
6.8318536e-04 0.0000000e+00 3.0918656e-02 
-6.2280833e-04 0.0000000e+00 2.4572448e-02 
-6.2280833e-04 0.0000000e+00 2.4572448e-02 
7.4581668e-04 0.0000000e+00 3.1227541e-02 
7.4581668e-04 0.0000000e+00 3.1227541e-02 
-5.9705531e-04 0.0000000e+00 2.4622414e-02 
-5.9705531e-04 0.0000000e+00 2.4622414e-02 
8.2148263e-04 0.0000000e+00 3.1572417e-02 
8.2148263e-04 0.0000000e+00 3.1572417e-02 
-5.6570229e-04 0.0000000e+00 2.4667949e-02 
-5.6570229e-04 0.0000000e+00 2.4667949e-02 
9.1273816e-04 0.0000000e+00 3.1949451e-02 
9.1273816e-04 0.0000000e+00 3.1949451e-02 
-5.2791109e-04 0.0000000e+00 2.4701729e-02 
-5.2791109e-04 0.0000000e+00 2.4701729e-02 
1.0090652e-03 0.0000000e+00 3.2303381e-02 
1.0090652e-03 0.0000000e+00 3.2303381e-02 
-4.8962559e-04 0.0000000e+00 2.4713492e-02 
-4.8962559e-04 0.0000000e+00 2.4713492e-02 
1.1051468e-03 0.0000000e+00 3.2612719e-02 
1.1051468e-03 0.0000000e+00 3.2612719e-02 
-4.5095478e-04 0.0000000e+00 2.4703189e-02 
-4.5095478e-04 0.0000000e+00 2.4703189e-02 
1.2005571e-03 0.0000000e+00 3.2877426e-02 
1.2005571e-03 0.0000000e+00 3.2877426e-02 
-4.1200773e-04 0.0000000e+00 2.4670852e-02 
-4.1200773e-04 0.0000000e+00 2.4670852e-02 
1.2948673e-03 0.0000000e+00 3.3097547e-02 
1.2948673e-03 0.0000000e+00 3.3097547e-02 
-3.7289331e-04 0.0000000e+00 2.4616465e-02 
-3.7289331e-04 0.0000000e+00 2.4616465e-02 
1.3876526e-03 0.0000000e+00 3.3273204e-02 
1.3876526e-03 0.0000000e+00 3.3273204e-02 
-3.3372329e-04 0.0000000e+00 2.4539994e-02 
-3.3372329e-04 0.0000000e+00 2.4539994e-02 
1.4784994e-03 0.0000000e+00 3.3404705e-02 
1.4784994e-03 0.0000000e+00 3.3404705e-02 
-2.9460530e-04 0.0000000e+00 2.4441559e-02 
-2.9460530e-04 0.0000000e+00 2.4441559e-02 
1.5670085e-03 0.0000000e+00 3.3492459e-02 
1.5670085e-03 0.0000000e+00 3.3492459e-02 
-2.5564654e-04 0.0000000e+00 2.4321204e-02 
-2.5564654e-04 0.0000000e+00 2.4321204e-02 