# vtk DataFile Version 4.0
vtk output
ASCII
DATASET UNSTRUCTURED_GRID
POINTS 824 float
-6.4148600e-05 1.0000000e-02 -4.4525366e-03 
-1.0680180e-04 1.0000000e-02 -2.8088474e-03 
3.4513260e-04 1.0000000e-02 -6.0450544e-03 
1.3803532e-03 1.0000000e-02 -7.3230534e-03 
6.5829700e-05 1.0000000e-02 -1.1736922e-03 
2.7142144e-03 1.0000000e-02 -8.2851896e-03 
5.0392030e-04 1.0000000e-02 6.5784910e-04 
4.1780764e-03 1.0000000e-02 -9.0342357e-03 
1.1628646e-03 1.0000000e-02 2.4220088e-03 
5.7070961e-03 1.0000000e-02 -9.6390187e-03 
2.0046218e-03 1.0000000e-02 4.1066196e-03 
7.2731595e-03 1.0000000e-02 -1.0140047e-02 
-6.4148600e-05 0.0000000e+00 -4.4525366e-03 
-1.0680180e-04 0.0000000e+00 -2.8088474e-03 
3.4513260e-04 0.0000000e+00 -6.0450544e-03 
1.3803532e-03 0.0000000e+00 -7.3230534e-03 
6.5829700e-05 0.0000000e+00 -1.1736922e-03 
2.9952540e-03 1.0000000e-02 5.7082181e-03 
8.8622628e-03 1.0000000e-02 -1.0562311e-02 
2.7142144e-03 0.0000000e+00 -8.2851896e-03 
5.0392030e-04 0.0000000e+00 6.5784910e-04 
4.1780764e-03 0.0000000e+00 -9.0342357e-03 
1.1628646e-03 0.0000000e+00 2.4220088e-03 
1.0466628e-02 1.0000000e-02 -1.0922252e-02 
4.1067238e-03 1.0000000e-02 7.2284501e-03 
5.7070961e-03 0.0000000e+00 -9.6390187e-03 
2.0046218e-03 0.0000000e+00 4.1066196e-03 
7.2731595e-03 0.0000000e+00 -1.0140047e-02 
1.2081579e-02 1.0000000e-02 -1.1231240e-02 
5.3166988e-03 1.0000000e-02 8.6715129e-03 
2.9952540e-03 0.0000000e+00 5.7082181e-03 
8.8622628e-03 0.0000000e+00 -1.0562311e-02 
1.3704120e-02 1.0000000e-02 -1.1497501e-02 
1.0466628e-02 0.0000000e+00 -1.0922252e-02 
4.1067238e-03 0.0000000e+00 7.2284501e-03 
6.6076374e-03 1.0000000e-02 1.0042624e-02 
1.5332244e-02 1.0000000e-02 -1.1727173e-02 
1.2081579e-02 0.0000000e+00 -1.1231240e-02 
5.3166988e-03 0.0000000e+00 8.6715129e-03 
7.9658343e-03 1.0000000e-02 1.1347144e-02 
1.3704120e-02 0.0000000e+00 -1.1497501e-02 
1.6964543e-02 1.0000000e-02 -1.1925002e-02 
6.6076374e-03 0.0000000e+00 1.0042624e-02 
9.3804686e-03 1.0000000e-02 1.2590236e-02 
1.5332244e-02 0.0000000e+00 -1.1727173e-02 
1.8600004e-02 1.0000000e-02 -1.2094716e-02 
7.9658343e-03 0.0000000e+00 1.1347144e-02 
1.6964543e-02 0.0000000e+00 -1.1925002e-02 
1.0843002e-02 1.0000000e-02 1.3776601e-02 
2.0237876e-02 1.0000000e-02 -1.2239318e-02 
9.3804686e-03 0.0000000e+00 1.2590236e-02 
1.8600004e-02 0.0000000e+00 -1.2094716e-02 
1.2346566e-02 1.0000000e-02 1.4910517e-02 
2.1877591e-02 1.0000000e-02 -1.2361246e-02 
1.0843002e-02 0.0000000e+00 1.3776601e-02 
2.0237876e-02 0.0000000e+00 -1.2239318e-02 
1.3885623e-02 1.0000000e-02 1.5995768e-02 
2.3518711e-02 1.0000000e-02 -1.2462540e-02 
1.2346566e-02 0.0000000e+00 1.4910517e-02 
2.1877591e-02 0.0000000e+00 -1.2361246e-02 
2.5160890e-02 1.0000000e-02 -1.2544903e-02 
1.5455654e-02 1.0000000e-02 1.7035707e-02 
1.3885623e-02 0.0000000e+00 1.5995768e-02 
2.3518711e-02 0.0000000e+00 -1.2462540e-02 
2.6803852e-02 1.0000000e-02 -1.2609772e-02 
1.7052912e-02 1.0000000e-02 1.8033321e-02 
2.5160890e-02 0.0000000e+00 -1.2544903e-02 
1.5455654e-02 0.0000000e+00 1.7035707e-02 
2.8447376e-02 1.0000000e-02 -1.2658389e-02 
2.6803852e-02 0.0000000e+00 -1.2609772e-02 
1.7052912e-02 0.0000000e+00 1.8033321e-02 
1.8674284e-02 1.0000000e-02 1.8991246e-02 
3.0091279e-02 1.0000000e-02 -1.2691814e-02 
2.8447376e-02 0.0000000e+00 -1.2658389e-02 
1.8674284e-02 0.0000000e+00 1.8991246e-02 
2.0317149e-02 1.0000000e-02 1.9911822e-02 
3.0091279e-02 0.0000000e+00 -1.2691814e-02 
3.1735410e-02 1.0000000e-02 -1.2710971e-02 
2.0317149e-02 0.0000000e+00 1.9911822e-02 
2.1979295e-02 1.0000000e-02 2.0797113e-02 
3.1735410e-02 0.0000000e+00 -1.2710971e-02 
3.3379643e-02 1.0000000e-02 -1.2716676e-02 
2.1979295e-02 0.0000000e+00 2.0797113e-02 
2.3658832e-02 1.0000000e-02 2.1648949e-02 
3.3379643e-02 0.0000000e+00 -1.2716676e-02 
3.5023871e-02 1.0000000e-02 -1.2709629e-02 
2.3658832e-02 0.0000000e+00 2.1648949e-02 
2.5354100e-02 1.0000000e-02 2.2469029e-02 
3.5023871e-02 0.0000000e+00 -1.2709629e-02 
3.6668001e-02 1.0000000e-02 -1.2690457e-02 
2.5354100e-02 0.0000000e+00 2.2469029e-02 
2.7063712e-02 1.0000000e-02 2.3258772e-02 
3.6668001e-02 0.0000000e+00 -1.2690457e-02 
3.8312016e-02 1.0000000e-02 -1.2663038e-02 
2.7063712e-02 0.0000000e+00 2.3258772e-02 
3.8312016e-02 0.0000000e+00 -1.2663038e-02 
2.8786417e-02 1.0000000e-02 2.4019532e-02 
3.9956032e-02 1.0000000e-02 -1.2635752e-02 
2.8786417e-02 0.0000000e+00 2.4019532e-02 
3.9956032e-02 0.0000000e+00 -1.2635752e-02 
3.0521135e-02 1.0000000e-02 2.4752486e-02 
4.1600048e-02 1.0000000e-02 -1.2608467e-02 
3.0521135e-02 0.0000000e+00 2.4752486e-02 
4.1600048e-02 0.0000000e+00 -1.2608467e-02 
3.2266919e-02 1.0000000e-02 2.5458676e-02 
4.3299814e-02 1.0000000e-02 -1.2580255e-02 
3.2266919e-02 0.0000000e+00 2.5458676e-02 
4.3299814e-02 0.0000000e+00 -1.2580255e-02 
3.4022902e-02 1.0000000e-02 2.6139111e-02 
4.5339533e-02 1.0000000e-02 -1.2546402e-02 
3.4022902e-02 0.0000000e+00 2.6139111e-02 
4.5339533e-02 0.0000000e+00 -1.2546402e-02 
3.5788340e-02 1.0000000e-02 2.6794623e-02 
4.7787196e-02 1.0000000e-02 -1.2505778e-02 
3.5788340e-02 0.0000000e+00 2.6794623e-02 
3.7562554e-02 1.0000000e-02 2.7425996e-02 
4.7787196e-02 0.0000000e+00 -1.2505778e-02 
3.7562554e-02 0.0000000e+00 2.7425996e-02 
3.9344928e-02 1.0000000e-02 2.8033950e-02 
5.0379113e-02 1.0000000e-02 -1.2462760e-02 
3.9344928e-02 0.0000000e+00 2.8033950e-02 
5.0379113e-02 0.0000000e+00 -1.2462760e-02 
4.1134916e-02 1.0000000e-02 2.8619109e-02 
5.2971029e-02 1.0000000e-02 -1.2419741e-02 
4.1134916e-02 0.0000000e+00 2.8619109e-02 
5.2971029e-02 0.0000000e+00 -1.2419741e-02 
4.2932026e-02 1.0000000e-02 2.9182016e-02 
4.2932026e-02 0.0000000e+00 2.9182016e-02 
5.5562946e-02 1.0000000e-02 -1.2376723e-02 
4.5339682e-02 1.0000000e-02 2.9899231e-02 
5.5562946e-02 0.0000000e+00 -1.2376723e-02 
4.5339682e-02 0.0000000e+00 2.9899231e-02 
5.8154863e-02 1.0000000e-02 -1.2333705e-02 
4.7758221e-02 1.0000000e-02 3.0578844e-02 
5.8154863e-02 0.0000000e+00 -1.2333705e-02 
4.7758221e-02 0.0000000e+00 3.0578844e-02 
6.0746779e-02 1.0000000e-02 -1.2290686e-02 
5.0186760e-02 1.0000000e-02 3.1221807e-02 
6.0746779e-02 0.0000000e+00 -1.2290686e-02 
5.0186760e-02 0.0000000e+00 3.1221807e-02 
6.3338696e-02 1.0000000e-02 -1.2247668e-02 
5.2624513e-02 1.0000000e-02 3.1828903e-02 
6.3338696e-02 0.0000000e+00 -1.2247668e-02 
5.2624513e-02 0.0000000e+00 3.1828903e-02 
5.5070762e-02 1.0000000e-02 3.2400804e-02 
6.5930613e-02 1.0000000e-02 -1.2204650e-02 
5.5070762e-02 0.0000000e+00 3.2400804e-02 
6.5930613e-02 0.0000000e+00 -1.2204650e-02 
5.7524847e-02 1.0000000e-02 3.2938082e-02 
6.8522529e-02 1.0000000e-02 -1.2161631e-02 
5.7524847e-02 0.0000000e+00 3.2938082e-02 
6.8522529e-02 0.0000000e+00 -1.2161631e-02 
5.9986169e-02 1.0000000e-02 3.3441170e-02 
7.1114446e-02 1.0000000e-02 -1.2118613e-02 
5.9986169e-02 0.0000000e+00 3.3441170e-02 
7.1114446e-02 0.0000000e+00 -1.2118613e-02 
6.2454163e-02 1.0000000e-02 3.3910436e-02 
6.2454163e-02 0.0000000e+00 3.3910436e-02 
7.3706362e-02 1.0000000e-02 -1.2075595e-02 
7.3706362e-02 0.0000000e+00 -1.2075595e-02 
6.4928303e-02 1.0000000e-02 3.4346139e-02 
6.4928303e-02 0.0000000e+00 3.4346139e-02 
7.6298279e-02 1.0000000e-02 -1.2032577e-02 
7.6298279e-02 0.0000000e+00 -1.2032577e-02 
6.7408092e-02 1.0000000e-02 3.4748446e-02 
6.7408092e-02 0.0000000e+00 3.4748446e-02 
7.8890196e-02 1.0000000e-02 -1.1989558e-02 
7.8890196e-02 0.0000000e+00 -1.1989558e-02 
6.9893057e-02 1.0000000e-02 3.5117436e-02 
6.9893057e-02 0.0000000e+00 3.5117436e-02 
8.1482112e-02 1.0000000e-02 -1.1946540e-02 
8.1482112e-02 0.0000000e+00 -1.1946540e-02 
7.2382742e-02 1.0000000e-02 3.5453098e-02 
7.2382742e-02 0.0000000e+00 3.5453098e-02 
8.4074029e-02 1.0000000e-02 -1.1903522e-02 
7.4876707e-02 1.0000000e-02 3.5755332e-02 
8.4074029e-02 0.0000000e+00 -1.1903522e-02 
7.4876707e-02 0.0000000e+00 3.5755332e-02 
8.6665946e-02 1.0000000e-02 -1.1860503e-02 
7.7374516e-02 1.0000000e-02 3.6023948e-02 
8.6665946e-02 0.0000000e+00 -1.1860503e-02 
7.7374516e-02 0.0000000e+00 3.6023948e-02 
8.9257862e-02 1.0000000e-02 -1.1817485e-02 
7.9875738e-02 1.0000000e-02 3.6258665e-02 
8.9257862e-02 0.0000000e+00 -1.1817485e-02 
7.9875738e-02 0.0000000e+00 3.6258665e-02 
8.2379940e-02 1.0000000e-02 3.6459105e-02 
9.1849779e-02 1.0000000e-02 -1.1774467e-02 
8.2379940e-02 0.0000000e+00 3.6459105e-02 
9.1849779e-02 0.0000000e+00 -1.1774467e-02 
8.4886681e-02 1.0000000e-02 3.6624786e-02 
9.4441696e-02 1.0000000e-02 -1.1731448e-02 
8.4886681e-02 0.0000000e+00 3.6624786e-02 
9.4441696e-02 0.0000000e+00 -1.1731448e-02 
8.7395510e-02 1.0000000e-02 3.6755108e-02 
8.7395510e-02 0.0000000e+00 3.6755108e-02 
9.7033612e-02 1.0000000e-02 -1.1688430e-02 
9.7033612e-02 0.0000000e+00 -1.1688430e-02 
8.9905951e-02 1.0000000e-02 3.6849401e-02 
8.9905951e-02 0.0000000e+00 3.6849401e-02 
9.9625529e-02 1.0000000e-02 -1.1645412e-02 
9.9625529e-02 0.0000000e+00 -1.1645412e-02 
9.2417505e-02 1.0000000e-02 3.6906832e-02 
9.2417505e-02 0.0000000e+00 3.6906832e-02 
1.0221745e-01 1.0000000e-02 -1.1602393e-02 
1.0221745e-01 0.0000000e+00 -1.1602393e-02 
9.4929640e-02 1.0000000e-02 3.6926425e-02 
9.4929640e-02 0.0000000e+00 3.6926425e-02 
1.0480936e-01 1.0000000e-02 -1.1559375e-02 
1.0480936e-01 0.0000000e+00 -1.1559375e-02 
9.7441776e-02 1.0000000e-02 3.6907077e-02 
9.7441776e-02 0.0000000e+00 3.6907077e-02 
1.0740128e-01 1.0000000e-02 -1.1516357e-02 
1.0740128e-01 0.0000000e+00 -1.1516357e-02 
9.9953281e-02 1.0000000e-02 3.6847529e-02 
9.9953281e-02 0.0000000e+00 3.6847529e-02 
1.0999320e-01 1.0000000e-02 -1.1473339e-02 
1.0246345e-01 1.0000000e-02 3.6746314e-02 
1.0999320e-01 0.0000000e+00 -1.1473339e-02 
1.0246345e-01 0.0000000e+00 3.6746314e-02 
1.0497150e-01 1.0000000e-02 3.6601738e-02 
1.1258511e-01 1.0000000e-02 -1.1430320e-02 
1.0497150e-01 0.0000000e+00 3.6601738e-02 
1.1258511e-01 0.0000000e+00 -1.1430320e-02 
1.0747666e-01 1.0000000e-02 3.6413638e-02 
1.1517703e-01 1.0000000e-02 -1.1387302e-02 
1.0747666e-01 0.0000000e+00 3.6413638e-02 
[...]
POINT_DATA 824
FIELD FieldData 2
DISPLACEMENT 3 824  float
0.0000000e+00 0.0000000e+00 0.0000000e+00 
0.0000000e+00 0.0000000e+00 0.0000000e+00 
0.0000000e+00 0.0000000e+00 0.0000000e+00 
0.0000000e+00 0.0000000e+00 0.0000000e+00 
0.0000000e+00 0.0000000e+00 0.0000000e+00 
0.0000000e+00 0.0000000e+00 0.0000000e+00 
0.0000000e+00 0.0000000e+00 0.0000000e+00 
0.0000000e+00 0.0000000e+00 0.0000000e+00 
0.0000000e+00 0.0000000e+00 0.0000000e+00 
0.0000000e+00 0.0000000e+00 0.0000000e+00 
0.0000000e+00 0.0000000e+00 0.0000000e+00 
0.0000000e+00 0.0000000e+00 0.0000000e+00 
0.0000000e+00 0.0000000e+00 0.0000000e+00 
0.0000000e+00 0.0000000e+00 0.0000000e+00 
0.0000000e+00 0.0000000e+00 0.0000000e+00 
0.0000000e+00 0.0000000e+00 0.0000000e+00 
0.0000000e+00 0.0000000e+00 0.0000000e+00 
0.0000000e+00 0.0000000e+00 0.0000000e+00 
0.0000000e+00 0.0000000e+00 0.0000000e+00 
0.0000000e+00 0.0000000e+00 0.0000000e+00 
0.0000000e+00 0.0000000e+00 0.0000000e+00 
0.0000000e+00 0.0000000e+00 0.0000000e+00 
0.0000000e+00 0.0000000e+00 0.0000000e+00 
0.0000000e+00 0.0000000e+00 0.0000000e+00 
0.0000000e+00 0.0000000e+00 0.0000000e+00 
0.0000000e+00 0.0000000e+00 0.0000000e+00 
0.0000000e+00 0.0000000e+00 0.0000000e+00 
0.0000000e+00 0.0000000e+00 0.0000000e+00 
0.0000000e+00 0.0000000e+00 0.0000000e+00 
0.0000000e+00 0.0000000e+00 0.0000000e+00 
0.0000000e+00 0.0000000e+00 0.0000000e+00 
0.0000000e+00 0.0000000e+00 0.0000000e+00 
0.0000000e+00 0.0000000e+00 0.0000000e+00 
0.0000000e+00 0.0000000e+00 0.0000000e+00 
0.0000000e+00 0.0000000e+00 0.0000000e+00 
0.0000000e+00 0.0000000e+00 0.0000000e+00 
0.0000000e+00 0.0000000e+00 0.0000000e+00 
0.0000000e+00 0.0000000e+00 0.0000000e+00 
0.0000000e+00 0.0000000e+00 0.0000000e+00 
0.0000000e+00 0.0000000e+00 0.0000000e+00 
0.0000000e+00 0.0000000e+00 0.0000000e+00 
0.0000000e+00 0.0000000e+00 0.0000000e+00 
0.0000000e+00 0.0000000e+00 0.0000000e+00 
0.0000000e+00 0.0000000e+00 0.0000000e+00 
0.0000000e+00 0.0000000e+00 0.0000000e+00 
0.0000000e+00 0.0000000e+00 0.0000000e+00 
0.0000000e+00 0.0000000e+00 0.0000000e+00 
0.0000000e+00 0.0000000e+00 0.0000000e+00 
0.0000000e+00 0.0000000e+00 0.0000000e+00 
0.0000000e+00 0.0000000e+00 0.0000000e+00 
0.0000000e+00 0.0000000e+00 0.0000000e+00 
0.0000000e+00 0.0000000e+00 0.0000000e+00 
0.0000000e+00 0.0000000e+00 0.0000000e+00 
0.0000000e+00 0.0000000e+00 0.0000000e+00 
0.0000000e+00 0.0000000e+00 0.0000000e+00 
0.0000000e+00 0.0000000e+00 0.0000000e+00 
0.0000000e+00 0.0000000e+00 0.0000000e+00 
0.0000000e+00 0.0000000e+00 0.0000000e+00 
0.0000000e+00 0.0000000e+00 0.0000000e+00 
0.0000000e+00 0.0000000e+00 0.0000000e+00 
0.0000000e+00 0.0000000e+00 0.0000000e+00 
0.0000000e+00 0.0000000e+00 0.0000000e+00 
0.0000000e+00 0.0000000e+00 0.0000000e+00 
0.0000000e+00 0.0000000e+00 0.0000000e+00 
0.0000000e+00 0.0000000e+00 0.0000000e+00 
0.0000000e+00 0.0000000e+00 0.0000000e+00 
0.0000000e+00 0.0000000e+00 0.0000000e+00 
0.0000000e+00 0.0000000e+00 0.0000000e+00 
0.0000000e+00 0.0000000e+00 0.0000000e+00 
0.0000000e+00 0.0000000e+00 0.0000000e+00 
0.0000000e+00 0.0000000e+00 0.0000000e+00 
0.0000000e+00 0.0000000e+00 0.0000000e+00 
0.0000000e+00 0.0000000e+00 0.0000000e+00 
0.0000000e+00 0.0000000e+00 0.0000000e+00 
0.0000000e+00 0.0000000e+00 0.0000000e+00 
0.0000000e+00 0.0000000e+00 0.0000000e+00 
0.0000000e+00 0.0000000e+00 0.0000000e+00 
0.0000000e+00 0.0000000e+00 0.0000000e+00 
0.0000000e+00 0.0000000e+00 0.0000000e+00 
0.0000000e+00 0.0000000e+00 0.0000000e+00 
0.0000000e+00 0.0000000e+00 0.0000000e+00 
0.0000000e+00 0.0000000e+00 0.0000000e+00 
0.0000000e+00 0.0000000e+00 0.0000000e+00 
0.0000000e+00 0.0000000e+00 0.0000000e+00 
0.0000000e+00 0.0000000e+00 0.0000000e+00 
0.0000000e+00 0.0000000e+00 0.0000000e+00 
0.0000000e+00 0.0000000e+00 0.0000000e+00 
0.0000000e+00 0.0000000e+00 0.0000000e+00 
0.0000000e+00 0.0000000e+00 0.0000000e+00 
0.0000000e+00 0.0000000e+00 0.0000000e+00 
0.0000000e+00 0.0000000e+00 0.0000000e+00 
0.0000000e+00 0.0000000e+00 0.0000000e+00 
0.0000000e+00 0.0000000e+00 0.0000000e+00 
0.0000000e+00 0.0000000e+00 0.0000000e+00 
0.0000000e+00 0.0000000e+00 0.0000000e+00 
0.0000000e+00 0.0000000e+00 0.0000000e+00 
0.0000000e+00 0.0000000e+00 0.0000000e+00 
-2.3674770e-05 0.0000000e+00 3.3571839e-04 
0.0000000e+00 0.0000000e+00 0.0000000e+00 
-2.3674770e-05 0.0000000e+00 3.3571839e-04 
0.0000000e+00 0.0000000e+00 0.0000000e+00 
-4.7294556e-05 0.0000000e+00 6.7119048e-04 
0.0000000e+00 0.0000000e+00 0.0000000e+00 
-4.7294556e-05 0.0000000e+00 6.7119048e-04 
0.0000000e+00 0.0000000e+00 0.0000000e+00 
-7.1628206e-05 0.0000000e+00 1.0176458e-03 
0.0000000e+00 0.0000000e+00 0.0000000e+00 
-7.1628206e-05 0.0000000e+00 1.0176458e-03 
0.0000000e+00 0.0000000e+00 0.0000000e+00 
-1.0067260e-04 0.0000000e+00 1.4326928e-03 
0.0000000e+00 0.0000000e+00 0.0000000e+00 
-1.0067260e-04 0.0000000e+00 1.4326928e-03 
0.0000000e+00 0.0000000e+00 0.0000000e+00 
-1.3525566e-04 0.0000000e+00 1.9295364e-03 
0.0000000e+00 0.0000000e+00 0.0000000e+00 
0.0000000e+00 0.0000000e+00 0.0000000e+00 
-1.3525566e-04 0.0000000e+00 1.9295364e-03 
0.0000000e+00 0.0000000e+00 0.0000000e+00 
0.0000000e+00 0.0000000e+00 0.0000000e+00 
-1.7147421e-04 0.0000000e+00 2.4538544e-03 
0.0000000e+00 0.0000000e+00 0.0000000e+00 
-1.7147421e-04 0.0000000e+00 2.4538544e-03 
0.0000000e+00 0.0000000e+00 0.0000000e+00 
-2.0717153e-04 0.0000000e+00 2.9758264e-03 
0.0000000e+00 0.0000000e+00 0.0000000e+00 
-2.0717153e-04 0.0000000e+00 2.9758264e-03 
0.0000000e+00 0.0000000e+00 0.0000000e+00 
0.0000000e+00 0.0000000e+00 0.0000000e+00 
-2.4224285e-04 0.0000000e+00 3.4949732e-03 
0.0000000e+00 0.0000000e+00 0.0000000e+00 
-2.4224285e-04 0.0000000e+00 3.4949732e-03 
0.0000000e+00 0.0000000e+00 0.0000000e+00 
-2.7658952e-04 0.0000000e+00 4.0108231e-03 
0.0000000e+00 0.0000000e+00 0.0000000e+00 
-2.7658952e-04 0.0000000e+00 4.0108231e-03 
0.0000000e+00 0.0000000e+00 0.0000000e+00 
-3.1015965e-04 0.0000000e+00 4.5231104e-03 
0.0000000e+00 0.0000000e+00 0.0000000e+00 
-3.1015965e-04 0.0000000e+00 4.5231104e-03 
0.0000000e+00 0.0000000e+00 0.0000000e+00 
-3.4294251e-04 0.0000000e+00 5.0317671e-03 
0.0000000e+00 0.0000000e+00 0.0000000e+00 
-3.4294251e-04 0.0000000e+00 5.0317671e-03 
0.0000000e+00 0.0000000e+00 0.0000000e+00 
0.0000000e+00 0.0000000e+00 0.0000000e+00 
-3.7489917e-04 0.0000000e+00 5.5365892e-03 
0.0000000e+00 0.0000000e+00 0.0000000e+00 
-3.7489917e-04 0.0000000e+00 5.5365892e-03 
0.0000000e+00 0.0000000e+00 0.0000000e+00 
-4.0597613e-04 0.0000000e+00 6.0372884e-03 
0.0000000e+00 0.0000000e+00 0.0000000e+00 
-4.0597613e-04 0.0000000e+00 6.0372884e-03 
0.0000000e+00 0.0000000e+00 0.0000000e+00 
-4.3615872e-04 0.0000000e+00 6.5337572e-03 
0.0000000e+00 0.0000000e+00 0.0000000e+00 
-4.3615872e-04 0.0000000e+00 6.5337572e-03 
0.0000000e+00 0.0000000e+00 0.0000000e+00 
0.0000000e+00 0.0000000e+00 0.0000000e+00 
-4.6545865e-04 0.0000000e+00 7.0260207e-03 
-4.6545865e-04 0.0000000e+00 7.0260207e-03 
0.0000000e+00 0.0000000e+00 0.0000000e+00 
0.0000000e+00 0.0000000e+00 0.0000000e+00 
-4.9385929e-04 0.0000000e+00 7.5139697e-03 
-4.9385929e-04 0.0000000e+00 7.5139697e-03 
0.0000000e+00 0.0000000e+00 0.0000000e+00 
0.0000000e+00 0.0000000e+00 0.0000000e+00 
-5.2131635e-04 0.0000000e+00 7.9973420e-03 
-5.2131635e-04 0.0000000e+00 7.9973420e-03 
0.0000000e+00 0.0000000e+00 0.0000000e+00 
0.0000000e+00 0.0000000e+00 0.0000000e+00 
-5.4781727e-04 0.0000000e+00 8.4760278e-03 
-5.4781727e-04 0.0000000e+00 8.4760278e-03 
0.0000000e+00 0.0000000e+00 0.0000000e+00 
0.0000000e+00 0.0000000e+00 0.0000000e+00 
-5.7338393e-04 0.0000000e+00 8.9500982e-03 
0.0000000e+00 0.0000000e+00 0.0000000e+00 
-5.7338393e-04 0.0000000e+00 8.9500982e-03 
0.0000000e+00 0.0000000e+00 0.0000000e+00 
-5.9801019e-04 0.0000000e+00 9.4194858e-03 
0.0000000e+00 0.0000000e+00 0.0000000e+00 
-5.9801019e-04 0.0000000e+00 9.4194858e-03 
0.0000000e+00 0.0000000e+00 0.0000000e+00 
-6.2166440e-04 0.0000000e+00 9.8839763e-03 
0.0000000e+00 0.0000000e+00 0.0000000e+00 
-6.2166440e-04 0.0000000e+00 9.8839763e-03 
0.0000000e+00 0.0000000e+00 0.0000000e+00 
0.0000000e+00 0.0000000e+00 0.0000000e+00 
-6.4434702e-04 0.0000000e+00 1.0343511e-02 
0.0000000e+00 0.0000000e+00 0.0000000e+00 
-6.4434702e-04 0.0000000e+00 1.0343511e-02 
0.0000000e+00 0.0000000e+00 0.0000000e+00 
-6.6608854e-04 0.0000000e+00 1.0798206e-02 
0.0000000e+00 0.0000000e+00 0.0000000e+00 
-6.6608854e-04 0.0000000e+00 1.0798206e-02 
0.0000000e+00 0.0000000e+00 0.0000000e+00 
0.0000000e+00 0.0000000e+00 0.0000000e+00 
-6.8689097e-04 0.0000000e+00 1.1248033e-02 
-6.8689097e-04 0.0000000e+00 1.1248033e-02 
0.0000000e+00 0.0000000e+00 0.0000000e+00 
0.0000000e+00 0.0000000e+00 0.0000000e+00 
-7.0672159e-04 0.0000000e+00 1.1692759e-02 
-7.0672159e-04 0.0000000e+00 1.1692759e-02 
0.0000000e+00 0.0000000e+00 0.0000000e+00 
0.0000000e+00 0.0000000e+00 0.0000000e+00 
-7.2557602e-04 0.0000000e+00 1.2132293e-02 
-7.2557602e-04 0.0000000e+00 1.2132293e-02 
0.0000000e+00 0.0000000e+00 0.0000000e+00 
0.0000000e+00 0.0000000e+00 0.0000000e+00 
-7.4348519e-04 0.0000000e+00 1.2566756e-02 
-7.4348519e-04 0.0000000e+00 1.2566756e-02 
0.0000000e+00 0.0000000e+00 0.0000000e+00 
0.0000000e+00 0.0000000e+00 0.0000000e+00 
-7.6045195e-04 0.0000000e+00 1.2996121e-02 
-7.6045195e-04 0.0000000e+00 1.2996121e-02 
0.0000000e+00 0.0000000e+00 0.0000000e+00 
0.0000000e+00 0.0000000e+00 0.0000000e+00 
-7.7644924e-04 0.0000000e+00 1.3420166e-02 
0.0000000e+00 0.0000000e+00 0.0000000e+00 
-7.7644924e-04 0.0000000e+00 1.3420166e-02 
0.0000000e+00 0.0000000e+00 0.0000000e+00 
-2.9644794e-05 0.0000000e+00 7.8168523e-04 
-7.9147886e-04 0.0000000e+00 1.3838826e-02 
-2.9644794e-05 0.0000000e+00 7.8168523e-04 
-7.9147886e-04 0.0000000e+00 1.3838826e-02 
-5.5415102e-05 0.0000000e+00 1.6030150e-03 
-8.0557277e-04 0.0000000e+00 1.4252230e-02 
-5.5415102e-05 0.0000000e+00 1.6030150e-03 
-8.0557277e-04 0.0000000e+00 1.4252230e-02 
-7.9009381e-05 0.0000000e+00 2.4318153e-03 
-7.9009381e-05 0.0000000e+00 2.4318153e-03 
-8.1873670e-04 0.0000000e+00 1.4660360e-02 
-8.1873670e-04 0.0000000e+00 1.4660360e-02 
-1.0128071e-04 0.0000000e+00 3.2553361e-03 
-1.0128071e-04 0.0000000e+00 3.2553361e-03 
-8.3094405e-04 0.0000000e+00 1.5062984e-02 
-8.3094405e-04 0.0000000e+00 1.5062984e-02 
-1.2221773e-04 0.0000000e+00 4.0735011e-03 
-1.2221773e-04 0.0000000e+00 4.0735011e-03 
-8.4219133e-04 0.0000000e+00 1.5460005e-02 
-8.4219133e-04 0.0000000e+00 1.5460005e-02 
-1.4170535e-04 0.0000000e+00 4.8858217e-03 
-1.4170535e-04 0.0000000e+00 4.8858217e-03 
-8.5250216e-04 0.0000000e+00 1.5851500e-02 
-8.5250216e-04 0.0000000e+00 1.5851500e-02 
-1.5956820e-04 0.0000000e+00 5.6915125e-03 
-1.5956820e-04 0.0000000e+00 5.6915125e-03 
-8.6187754e-04 0.0000000e+00 1.6237409e-02 
-8.6187754e-04 0.0000000e+00 1.6237409e-02 
-1.7567951e-04 0.0000000e+00 6.4899731e-03 
-1.7567951e-04 0.0000000e+00 6.4899731e-03 
-8.7029955e-04 0.0000000e+00 1.6617542e-02 
-1.8994897e-04 0.0000000e+00 7.2807186e-03 
-8.7029955e-04 0.0000000e+00 1.6617542e-02 
-1.8994897e-04 0.0000000e+00 7.2807186e-03 
-2.0230032e-04 0.0000000e+00 8.0633138e-03 
-8.7777359e-04 0.0000000e+00 1.6991834e-02 
-2.0230032e-04 0.0000000e+00 8.0633138e-03 
-8.7777359e-04 0.0000000e+00 1.6991834e-02 
-2.1268650e-04 0.0000000e+00 8.8374242e-03 
-8.8432248e-04 0.0000000e+00 1.7360352e-02 
-2.1268650e-04 0.0000000e+00 8.8374242e-03 
-8.8432248e-04 0.0000000e+00 1.7360352e-02 
-2.2108711e-04 0.0000000e+00 9.6028157e-03 
-2.2108711e-04 0.0000000e+00 9.6028157e-03 
-8.8994852e-04 0.0000000e+00 1.7723041e-02 
-8.8994852e-04 0.0000000e+00 1.7723041e-02 
-2.2749855e-04 0.0000000e+00 1.0359338e-02 
-2.2749855e-04 0.0000000e+00 1.0359338e-02 
-8.9463638e-04 0.0000000e+00 1.8079703e-02 
-8.9463638e-04 0.0000000e+00 1.8079703e-02 
-2.3189524e-04 0.0000000e+00 1.1106721e-02 
-2.3189524e-04 0.0000000e+00 1.1106721e-02 
-8.9838954e-04 0.0000000e+00 1.8430256e-02 
-8.9838954e-04 0.0000000e+00 1.8430256e-02 
-2.3424128e-04 0.0000000e+00 1.1844635e-02 
-2.3424128e-04 0.0000000e+00 1.1844635e-02 
-9.0122625e-04 0.0000000e+00 1.8774734e-02 
-9.0122625e-04 0.0000000e+00 1.8774734e-02 
-2.3453162e-04 0.0000000e+00 1.2572862e-02 
-2.3453162e-04 0.0000000e+00 1.2572862e-02 
-9.0314772e-04 0.0000000e+00 1.9113056e-02 
-9.0314772e-04 0.0000000e+00 1.9113056e-02 
-2.3276917e-04 0.0000000e+00 1.3291235e-02 
-2.3276917e-04 0.0000000e+00 1.3291235e-02 
-9.0414658e-04 0.0000000e+00 1.9445053e-02 
-9.0414658e-04 0.0000000e+00 1.9445053e-02 
-2.2894403e-04 0.0000000e+00 1.3999503e-02 
-2.2894403e-04 0.0000000e+00 1.3999503e-02 
-9.0423299e-04 0.0000000e+00 1.9770677e-02 
-9.0423299e-04 0.0000000e+00 1.9770677e-02 
-2.2305357e-04 0.0000000e+00 1.4697430e-02 
-2.2305357e-04 0.0000000e+00 1.4697430e-02 
-9.0342570e-04 0.0000000e+00 2.0089956e-02 
-2.1511773e-04 0.0000000e+00 1.5384890e-02 
-9.0342570e-04 0.0000000e+00 2.0089956e-02 
-2.1511773e-04 0.0000000e+00 1.5384890e-02 
-9.0172920e-04 0.0000000e+00 2.0402813e-02 
-2.0516517e-04 0.0000000e+00 1.6061794e-02 
-9.0172920e-04 0.0000000e+00 2.0402813e-02 
-2.0516517e-04 0.0000000e+00 1.6061794e-02 
-1.9320685e-04 0.0000000e+00 1.6727964e-02 
-8.9913916e-04 0.0000000e+00 2.0709090e-02 
-1.9320685e-04 0.0000000e+00 1.6727964e-02 
-8.9913916e-04 0.0000000e+00 2.0709090e-02 
-1.7924940e-04 0.0000000e+00 1.7383163e-02 
-1.7924940e-04 0.0000000e+00 1.7383163e-02 
-8.9566447e-04 0.0000000e+00 2.1008712e-02 
-8.9566447e-04 0.0000000e+00 2.1008712e-02 
-1.6331654e-04 0.0000000e+00 1.8027245e-02 
-1.6331654e-04 0.0000000e+00 1.8027245e-02 
-8.9132135e-04 0.0000000e+00 2.1301680e-02 
-8.9132135e-04 0.0000000e+00 2.1301680e-02 
-1.4543469e-04 0.0000000e+00 1.8660068e-02 
-1.4543469e-04 0.0000000e+00 1.8660068e-02 
-8.8611516e-04 0.0000000e+00 2.1587908e-02 
-8.8611516e-04 0.0000000e+00 2.1587908e-02 
-1.2562540e-04 0.0000000e+00 1.9281450e-02 
-1.2562540e-04 0.0000000e+00 1.9281450e-02 
-8.8004882e-04 0.0000000e+00 2.1867263e-02 
-8.8004882e-04 0.0000000e+00 2.1867263e-02 
-1.0391736e-04 0.0000000e+00 1.9891235e-02 
-1.0391736e-04 0.0000000e+00 1.9891235e-02 
-8.7313599e-04 0.0000000e+00 2.2139693e-02 
-8.7313599e-04 0.0000000e+00 2.2139693e-02 
-8.0348458e-05 0.0000000e+00 2.0489312e-02 
-8.0348458e-05 0.0000000e+00 2.0489312e-02 
-8.6539319e-04 0.0000000e+00 2.2405190e-02 
-8.6539319e-04 0.0000000e+00 2.2405190e-02 
-5.4960119e-05 0.0000000e+00 2.1075596e-02 
-5.4960119e-05 0.0000000e+00 2.1075596e-02 
-8.5682936e-04 0.0000000e+00 2.2663671e-02 
-8.5682936e-04 0.0000000e+00 2.2663671e-02 
-2.7788527e-05 0.0000000e+00 2.1649949e-02 
-2.7788527e-05 0.0000000e+00 2.1649949e-02 
-8.4745048e-04 0.0000000e+00 2.2915013e-02 
-8.4745048e-04 0.0000000e+00 2.2915013e-02 
1.1317656e-06 0.0000000e+00 2.2212212e-02 
1.1317656e-06 0.0000000e+00 2.2212212e-02 
-8.3726995e-04 0.0000000e+00 2.3159151e-02 
-8.3726995e-04 0.0000000e+00 2.3159151e-02 
3.1760664e-05 0.0000000e+00 2.2762247e-02 
3.1760664e-05 0.0000000e+00 2.2762247e-02 
-8.2630387e-04 0.0000000e+00 2.3396049e-02 
-8.2630387e-04 0.0000000e+00 2.3396049e-02 
6.4054725e-05 0.0000000e+00 2.3299925e-02 
6.4054725e-05 0.0000000e+00 2.3299925e-02 
-8.1456250e-04 0.0000000e+00 2.3625617e-02 
-8.1456250e-04 0.0000000e+00 2.3625617e-02 
9.7965387e-05 0.0000000e+00 2.3825143e-02 
9.7965387e-05 0.0000000e+00 2.3825143e-02 
-8.0205673e-04 0.0000000e+00 2.3847749e-02 
1.3344165e-04 0.0000000e+00 2.4337813e-02 
-8.0205673e-04 0.0000000e+00 2.3847749e-02 
1.3344165e-04 0.0000000e+00 2.4337813e-02 
1.7043445e-04 0.0000000e+00 2.4837818e-02 
-7.8880452e-04 0.0000000e+00 2.4062396e-02 
1.7043445e-04 0.0000000e+00 2.4837818e-02 
-7.8880452e-04 0.0000000e+00 2.4062396e-02 
2.0889009e-04 0.0000000e+00 2.5325063e-02 
-7.7482416e-04 0.0000000e+00 2.4269526e-02 
2.0889009e-04 0.0000000e+00 2.5325063e-02 
-7.7482416e-04 0.0000000e+00 2.4269526e-02 
2.4874954e-04 0.0000000e+00 2.5799499e-02 
2.4874954e-04 0.0000000e+00 2.5799499e-02 
-7.6012951e-04 0.0000000e+00 2.4469060e-02 
-7.6012951e-04 0.0000000e+00 2.4469060e-02 
2.8995478e-04 0.0000000e+00 2.6261058e-02 
2.8995478e-04 0.0000000e+00 2.6261058e-02 
-7.4473377e-04 0.0000000e+00 2.4660887e-02 
-7.4473377e-04 0.0000000e+00 2.4660887e-02 
3.3245223e-04 0.0000000e+00 2.6709621e-02 
3.3245223e-04 0.0000000e+00 2.6709621e-02 
-7.2865350e-04 0.0000000e+00 2.4844928e-02 
-7.2865350e-04 0.0000000e+00 2.4844928e-02 
3.7618638e-04 0.0000000e+00 2.7145054e-02 
3.7618638e-04 0.0000000e+00 2.7145054e-02 
-7.1190725e-04 0.0000000e+00 2.5021128e-02 
-7.1190725e-04 0.0000000e+00 2.5021128e-02 
4.2109336e-04 0.0000000e+00 2.7567299e-02 
4.2109336e-04 0.0000000e+00 2.7567299e-02 
-6.9451211e-04 0.0000000e+00 2.5189405e-02 
-6.9451211e-04 0.0000000e+00 2.5189405e-02 
4.6710703e-04 0.0000000e+00 2.7976334e-02 
4.6710703e-04 0.0000000e+00 2.7976334e-02 
-6.7648463e-04 0.0000000e+00 2.5349655e-02 
-6.7648463e-04 0.0000000e+00 2.5349655e-02 
5.1416654e-04 0.0000000e+00 2.8372061e-02 
5.1416654e-04 0.0000000e+00 2.8372061e-02 
-6.5784409e-04 0.0000000e+00 2.5501793e-02 
-6.5784409e-04 0.0000000e+00 2.5501793e-02 
5.6220960e-04 0.0000000e+00 2.8754352e-02 
5.6220960e-04 0.0000000e+00 2.8754352e-02 
-6.3861247e-04 0.0000000e+00 2.5645770e-02 
-6.3861247e-04 0.0000000e+00 2.5645770e-02 
6.1116458e-04 0.0000000e+00 2.9123173e-02 
6.1116458e-04 0.0000000e+00 2.9123173e-02 
-6.1881181e-04 0.0000000e+00 2.5781538e-02 
-6.1881181e-04 0.0000000e+00 2.5781538e-02 
6.6095805e-04 0.0000000e+00 2.9478581e-02 
6.6095805e-04 0.0000000e+00 2.9478581e-02 
-5.9846273e-04 0.0000000e+00 2.5909009e-02 
-5.9846273e-04 0.0000000e+00 2.5909009e-02 
7.1152227e-04 0.0000000e+00 2.9820536e-02 
7.1152227e-04 0.0000000e+00 2.9820536e-02 
-5.7758630e-04 0.0000000e+00 2.6028089e-02 
-5.7758630e-04 0.0000000e+00 2.6028089e-02 
7.6278608e-04 0.0000000e+00 3.0148937e-02 
7.6278608e-04 0.0000000e+00 3.0148937e-02 
-5.5620658e-04 0.0000000e+00 2.6138729e-02 
-5.5620658e-04 0.0000000e+00 2.6138729e-02 
8.1466950e-04 0.0000000e+00 3.0463860e-02 
8.1466950e-04 0.0000000e+00 3.0463860e-02 
-5.3434963e-04 0.0000000e+00 2.6240904e-02 
-5.3434963e-04 0.0000000e+00 2.6240904e-02 
8.6683898e-04 0.0000000e+00 3.0764071e-02 
8.6683898e-04 0.0000000e+00 3.0764071e-02 
-5.1197342e-04 0.0000000e+00 2.6334828e-02 
-5.1197342e-04 0.0000000e+00 2.6334828e-02 
9.3005471e-04 0.0000000e+00 3.1107117e-02 
9.3005471e-04 0.0000000e+00 3.1107117e-02 
-4.8455590e-04 0.0000000e+00 2.6436122e-02 
-4.8455590e-04 0.0000000e+00 2.6436122e-02 
1.0066435e-03 0.0000000e+00 3.1494147e-02 
1.0066435e-03 0.0000000e+00 3.1494147e-02 
-4.5090355e-04 0.0000000e+00 2.6541191e-02 
-4.5090355e-04 0.0000000e+00 2.6541191e-02 
1.0993449e-03 0.0000000e+00 3.1923412e-02 
1.0993449e-03 0.0000000e+00 3.1923412e-02 
-4.0997847e-04 0.0000000e+00 2.6642686e-02 
-4.0997847e-04 0.0000000e+00 2.6642686e-02 
1.1976280e-03 0.0000000e+00 3.2334182e-02 
1.1976280e-03 0.0000000e+00 3.2334182e-02 
-3.6814625e-04 0.0000000e+00 2.6718628e-02 
-3.6814625e-04 0.0000000e+00 2.6718628e-02 
1.2961437e-03 0.0000000e+00 3.2701875e-02 
1.2961437e-03 0.0000000e+00 3.2701875e-02 
-3.2553981e-04 0.0000000e+00 2.6768493e-02 
-3.2553981e-04 0.0000000e+00 2.6768493e-02 
1.3944924e-03 0.0000000e+00 3.3026221e-02 
1.3944924e-03 0.0000000e+00 3.3026221e-02 
-2.8230611e-04 0.0000000e+00 2.6792109e-02 
-2.8230611e-04 0.0000000e+00 2.6792109e-02 
1.4922684e-03 0.0000000e+00 3.3307196e-02 
1.4922684e-03 0.0000000e+00 3.3307196e-02 
-2.3859892e-04 0.0000000e+00 2.6789520e-02 
-2.3859892e-04 0.0000000e+00 2.6789520e-02 
1.5890643e-03 0.0000000e+00 3.3544732e-02 
1.5890643e-03 0.0000000e+00 3.3544732e-02 
-1.9457264e-04 0.0000000e+00 2.6760541e-02 
-1.9457264e-04 0.0000000e+00 2.6760541e-02 
1.6844691e-03 0.0000000e+00 3.3738751e-02 
1.6844691e-03 0.0000000e+00 3.3738751e-02 
-1.5037883e-04 0.0000000e+00 2.6704968e-02 
-1.5037883e-04 0.0000000e+00 2.6704968e-02 
1.7780748e-03 0.0000000e+00 3.3889275e-02 
1.7780748e-03 0.0000000e+00 3.3889275e-02 
-1.0617314e-04 0.0000000e+00 2.6622658e-02 
-1.0617314e-04 0.0000000e+00 2.6622658e-02 