# vtk DataFile Version 4.0
vtk output
ASCII
DATASET UNSTRUCTURED_GRID
POINTS 824 float
-6.4148600e-05 1.0000000e-02 -4.4525366e-03 
-1.0680180e-04 1.0000000e-02 -2.8088474e-03 
3.4513260e-04 1.0000000e-02 -6.0450544e-03 
1.3803532e-03 1.0000000e-02 -7.3230534e-03 
6.5829700e-05 1.0000000e-02 -1.1736922e-03 
2.7142144e-03 1.0000000e-02 -8.2851896e-03 
5.0392030e-04 1.0000000e-02 6.5784910e-04 
4.1780764e-03 1.0000000e-02 -9.0342357e-03 
1.1628646e-03 1.0000000e-02 2.4220088e-03 
5.7070961e-03 1.0000000e-02 -9.6390187e-03 
2.0046218e-03 1.0000000e-02 4.1066196e-03 
7.2731595e-03 1.0000000e-02 -1.0140047e-02 
-6.4148600e-05 0.0000000e+00 -4.4525366e-03 
-1.0680180e-04 0.0000000e+00 -2.8088474e-03 
3.4513260e-04 0.0000000e+00 -6.0450544e-03 
1.3803532e-03 0.0000000e+00 -7.3230534e-03 
6.5829700e-05 0.0000000e+00 -1.1736922e-03 
2.9952540e-03 1.0000000e-02 5.7082181e-03 
8.8622628e-03 1.0000000e-02 -1.0562311e-02 
2.7142144e-03 0.0000000e+00 -8.2851896e-03 
5.0392030e-04 0.0000000e+00 6.5784910e-04 
4.1780764e-03 0.0000000e+00 -9.0342357e-03 
1.1628646e-03 0.0000000e+00 2.4220088e-03 
1.0466628e-02 1.0000000e-02 -1.0922252e-02 
4.1067238e-03 1.0000000e-02 7.2284501e-03 
5.7070961e-03 0.0000000e+00 -9.6390187e-03 
2.0046218e-03 0.0000000e+00 4.1066196e-03 
7.2731595e-03 0.0000000e+00 -1.0140047e-02 
1.2081579e-02 1.0000000e-02 -1.1231240e-02 
5.3166988e-03 1.0000000e-02 8.6715129e-03 
2.9952540e-03 0.0000000e+00 5.7082181e-03 
8.8622628e-03 0.0000000e+00 -1.0562311e-02 
1.3704120e-02 1.0000000e-02 -1.1497501e-02 
1.0466628e-02 0.0000000e+00 -1.0922252e-02 
4.1067238e-03 0.0000000e+00 7.2284501e-03 
6.6076374e-03 1.0000000e-02 1.0042624e-02 
1.5332244e-02 1.0000000e-02 -1.1727173e-02 
1.2081579e-02 0.0000000e+00 -1.1231240e-02 
5.3166988e-03 0.0000000e+00 8.6715129e-03 
7.9658343e-03 1.0000000e-02 1.1347144e-02 
1.3704120e-02 0.0000000e+00 -1.1497501e-02 
1.6964543e-02 1.0000000e-02 -1.1925002e-02 
6.6076374e-03 0.0000000e+00 1.0042624e-02 
9.3804686e-03 1.0000000e-02 1.2590236e-02 
1.5332244e-02 0.0000000e+00 -1.1727173e-02 
1.8600004e-02 1.0000000e-02 -1.2094716e-02 
7.9658343e-03 0.0000000e+00 1.1347144e-02 
1.6964543e-02 0.0000000e+00 -1.1925002e-02 
1.0843002e-02 1.0000000e-02 1.3776601e-02 
2.0237876e-02 1.0000000e-02 -1.2239318e-02 
9.3804686e-03 0.0000000e+00 1.2590236e-02 
1.8600004e-02 0.0000000e+00 -1.2094716e-02 
1.2346566e-02 1.0000000e-02 1.4910517e-02 
2.1877591e-02 1.0000000e-02 -1.2361246e-02 
1.0843002e-02 0.0000000e+00 1.3776601e-02 
2.0237876e-02 0.0000000e+00 -1.2239318e-02 
1.3885623e-02 1.0000000e-02 1.5995768e-02 
2.3518711e-02 1.0000000e-02 -1.2462540e-02 
1.2346566e-02 0.0000000e+00 1.4910517e-02 
2.1877591e-02 0.0000000e+00 -1.2361246e-02 
2.5160890e-02 1.0000000e-02 -1.2544903e-02 
1.5455654e-02 1.0000000e-02 1.7035707e-02 
1.3885623e-02 0.0000000e+00 1.5995768e-02 
2.3518711e-02 0.0000000e+00 -1.2462540e-02 
2.6803852e-02 1.0000000e-02 -1.2609772e-02 
1.7052912e-02 1.0000000e-02 1.8033321e-02 
2.5160890e-02 0.0000000e+00 -1.2544903e-02 
1.5455654e-02 0.0000000e+00 1.7035707e-02 
2.8447376e-02 1.0000000e-02 -1.2658389e-02 
2.6803852e-02 0.0000000e+00 -1.2609772e-02 
1.7052912e-02 0.0000000e+00 1.8033321e-02 
1.8674284e-02 1.0000000e-02 1.8991246e-02 
3.0091279e-02 1.0000000e-02 -1.2691814e-02 
2.8447376e-02 0.0000000e+00 -1.2658389e-02 
1.8674284e-02 0.0000000e+00 1.8991246e-02 
2.0317149e-02 1.0000000e-02 1.9911822e-02 
3.0091279e-02 0.0000000e+00 -1.2691814e-02 
3.1735410e-02 1.0000000e-02 -1.2710971e-02 
2.0317149e-02 0.0000000e+00 1.9911822e-02 
2.1979295e-02 1.0000000e-02 2.0797113e-02 
3.1735410e-02 0.0000000e+00 -1.2710971e-02 
3.3379643e-02 1.0000000e-02 -1.2716676e-02 
2.1979295e-02 0.0000000e+00 2.0797113e-02 
2.3658832e-02 1.0000000e-02 2.1648949e-02 
3.3379643e-02 0.0000000e+00 -1.2716676e-02 
3.5023871e-02 1.0000000e-02 -1.2709629e-02 
2.3658832e-02 0.0000000e+00 2.1648949e-02 
2.5354100e-02 1.0000000e-02 2.2469029e-02 
3.5023871e-02 0.0000000e+00 -1.2709629e-02 
3.6668001e-02 1.0000000e-02 -1.2690457e-02 
2.5354100e-02 0.0000000e+00 2.2469029e-02 
2.7063712e-02 1.0000000e-02 2.3258772e-02 
3.6668001e-02 0.0000000e+00 -1.2690457e-02 
3.8312016e-02 1.0000000e-02 -1.2663038e-02 
2.7063712e-02 0.0000000e+00 2.3258772e-02 
3.8312016e-02 0.0000000e+00 -1.2663038e-02 
2.8786417e-02 1.0000000e-02 2.4019532e-02 
3.9956032e-02 1.0000000e-02 -1.2635752e-02 
2.8786417e-02 0.0000000e+00 2.4019532e-02 
3.9956032e-02 0.0000000e+00 -1.2635752e-02 
3.0521135e-02 1.0000000e-02 2.4752486e-02 
4.1600048e-02 1.0000000e-02 -1.2608467e-02 
3.0521135e-02 0.0000000e+00 2.4752486e-02 
4.1600048e-02 0.0000000e+00 -1.2608467e-02 
3.2266919e-02 1.0000000e-02 2.5458676e-02 
4.3299814e-02 1.0000000e-02 -1.2580255e-02 
3.2266919e-02 0.0000000e+00 2.5458676e-02 
4.3299814e-02 0.0000000e+00 -1.2580255e-02 
3.4022902e-02 1.0000000e-02 2.6139111e-02 
4.5339533e-02 1.0000000e-02 -1.2546402e-02 
3.4022902e-02 0.0000000e+00 2.6139111e-02 
4.5339533e-02 0.0000000e+00 -1.2546402e-02 
3.5788340e-02 1.0000000e-02 2.6794623e-02 
4.7787196e-02 1.0000000e-02 -1.2505778e-02 
3.5788340e-02 0.0000000e+00 2.6794623e-02 
3.7562554e-02 1.0000000e-02 2.7425996e-02 
4.7787196e-02 0.0000000e+00 -1.2505778e-02 
3.7562554e-02 0.0000000e+00 2.7425996e-02 
3.9344928e-02 1.0000000e-02 2.8033950e-02 
5.0379113e-02 1.0000000e-02 -1.2462760e-02 
3.9344928e-02 0.0000000e+00 2.8033950e-02 
5.0379113e-02 0.0000000e+00 -1.2462760e-02 
4.1134916e-02 1.0000000e-02 2.8619109e-02 
5.2971029e-02 1.0000000e-02 -1.2419741e-02 
4.1134916e-02 0.0000000e+00 2.8619109e-02 
5.2971029e-02 0.0000000e+00 -1.2419741e-02 
4.2932026e-02 1.0000000e-02 2.9182016e-02 
4.2932026e-02 0.0000000e+00 2.9182016e-02 
5.5562946e-02 1.0000000e-02 -1.2376723e-02 
4.5339682e-02 1.0000000e-02 2.9899231e-02 
5.5562946e-02 0.0000000e+00 -1.2376723e-02 
4.5339682e-02 0.0000000e+00 2.9899231e-02 
5.8154863e-02 1.0000000e-02 -1.2333705e-02 
4.7758221e-02 1.0000000e-02 3.0578844e-02 
5.8154863e-02 0.0000000e+00 -1.2333705e-02 
4.7758221e-02 0.0000000e+00 3.0578844e-02 
6.0746779e-02 1.0000000e-02 -1.2290686e-02 
5.0186760e-02 1.0000000e-02 3.1221807e-02 
6.0746779e-02 0.0000000e+00 -1.2290686e-02 
5.0186760e-02 0.0000000e+00 3.1221807e-02 
6.3338696e-02 1.0000000e-02 -1.2247668e-02 
5.2624513e-02 1.0000000e-02 3.1828903e-02 
6.3338696e-02 0.0000000e+00 -1.2247668e-02 
5.2624513e-02 0.0000000e+00 3.1828903e-02 
5.5070762e-02 1.0000000e-02 3.2400804e-02 
6.5930613e-02 1.0000000e-02 -1.2204650e-02 
5.5070762e-02 0.0000000e+00 3.2400804e-02 
6.5930613e-02 0.0000000e+00 -1.2204650e-02 
5.7524847e-02 1.0000000e-02 3.2938082e-02 
6.8522529e-02 1.0000000e-02 -1.2161631e-02 
5.7524847e-02 0.0000000e+00 3.2938082e-02 
6.8522529e-02 0.0000000e+00 -1.2161631e-02 
5.9986169e-02 1.0000000e-02 3.3441170e-02 
7.1114446e-02 1.0000000e-02 -1.2118613e-02 
5.9986169e-02 0.0000000e+00 3.3441170e-02 
7.1114446e-02 0.0000000e+00 -1.2118613e-02 
6.2454163e-02 1.0000000e-02 3.3910436e-02 
6.2454163e-02 0.0000000e+00 3.3910436e-02 
7.3706362e-02 1.0000000e-02 -1.2075595e-02 
7.3706362e-02 0.0000000e+00 -1.2075595e-02 
6.4928303e-02 1.0000000e-02 3.4346139e-02 
6.4928303e-02 0.0000000e+00 3.4346139e-02 
7.6298279e-02 1.0000000e-02 -1.2032577e-02 
7.6298279e-02 0.0000000e+00 -1.2032577e-02 
6.7408092e-02 1.0000000e-02 3.4748446e-02 
6.7408092e-02 0.0000000e+00 3.4748446e-02 
7.8890196e-02 1.0000000e-02 -1.1989558e-02 
7.8890196e-02 0.0000000e+00 -1.1989558e-02 
6.9893057e-02 1.0000000e-02 3.5117436e-02 
6.9893057e-02 0.0000000e+00 3.5117436e-02 
8.1482112e-02 1.0000000e-02 -1.1946540e-02 
8.1482112e-02 0.0000000e+00 -1.1946540e-02 
7.2382742e-02 1.0000000e-02 3.5453098e-02 
7.2382742e-02 0.0000000e+00 3.5453098e-02 
8.4074029e-02 1.0000000e-02 -1.1903522e-02 
7.4876707e-02 1.0000000e-02 3.5755332e-02 
8.4074029e-02 0.0000000e+00 -1.1903522e-02 
7.4876707e-02 0.0000000e+00 3.5755332e-02 
8.6665946e-02 1.0000000e-02 -1.1860503e-02 
7.7374516e-02 1.0000000e-02 3.6023948e-02 
8.6665946e-02 0.0000000e+00 -1.1860503e-02 
7.7374516e-02 0.0000000e+00 3.6023948e-02 
8.9257862e-02 1.0000000e-02 -1.1817485e-02 
7.9875738e-02 1.0000000e-02 3.6258665e-02 
8.9257862e-02 0.0000000e+00 -1.1817485e-02 
7.9875738e-02 0.0000000e+00 3.6258665e-02 
8.2379940e-02 1.0000000e-02 3.6459105e-02 
9.1849779e-02 1.0000000e-02 -1.1774467e-02 
8.2379940e-02 0.0000000e+00 3.6459105e-02 
9.1849779e-02 0.0000000e+00 -1.1774467e-02 
8.4886681e-02 1.0000000e-02 3.6624786e-02 
9.4441696e-02 1.0000000e-02 -1.1731448e-02 
8.4886681e-02 0.0000000e+00 3.6624786e-02 
9.4441696e-02 0.0000000e+00 -1.1731448e-02 
8.7395510e-02 1.0000000e-02 3.6755108e-02 
8.7395510e-02 0.0000000e+00 3.6755108e-02 
9.7033612e-02 1.0000000e-02 -1.1688430e-02 
9.7033612e-02 0.0000000e+00 -1.1688430e-02 
8.9905951e-02 1.0000000e-02 3.6849401e-02 
8.9905951e-02 0.0000000e+00 3.6849401e-02 
9.9625529e-02 1.0000000e-02 -1.1645412e-02 
9.9625529e-02 0.0000000e+00 -1.1645412e-02 
9.2417505e-02 1.0000000e-02 3.6906832e-02 
9.2417505e-02 0.0000000e+00 3.6906832e-02 
1.0221745e-01 1.0000000e-02 -1.1602393e-02 
1.0221745e-01 0.0000000e+00 -1.1602393e-02 
9.4929640e-02 1.0000000e-02 3.6926425e-02 
9.4929640e-02 0.0000000e+00 3.6926425e-02 
1.0480936e-01 1.0000000e-02 -1.1559375e-02 
1.0480936e-01 0.0000000e+00 -1.1559375e-02 
9.7441776e-02 1.0000000e-02 3.6907077e-02 
9.7441776e-02 0.0000000e+00 3.6907077e-02 
1.0740128e-01 1.0000000e-02 -1.1516357e-02 
1.0740128e-01 0.0000000e+00 -1.1516357e-02 
9.9953281e-02 1.0000000e-02 3.6847529e-02 
9.9953281e-02 0.0000000e+00 3.6847529e-02 
1.0999320e-01 1.0000000e-02 -1.1473339e-02 
1.0246345e-01 1.0000000e-02 3.6746314e-02 
1.0999320e-01 0.0000000e+00 -1.1473339e-02 
1.0246345e-01 0.0000000e+00 3.6746314e-02 
1.0497150e-01 1.0000000e-02 3.6601738e-02 
1.1258511e-01 1.0000000e-02 -1.1430320e-02 
1.0497150e-01 0.0000000e+00 3.6601738e-02 
1.1258511e-01 0.0000000e+00 -1.1430320e-02 
1.0747666e-01 1.0000000e-02 3.6413638e-02 
1.1517703e-01 1.0000000e-02 -1.1387302e-02 
1.0747666e-01 0.0000000e+00 3.6413638e-02 
[...]
POINT_DATA 824
FIELD FieldData 2
DISPLACEMENT 3 824  float
0.0000000e+00 0.0000000e+00 0.0000000e+00 
0.0000000e+00 0.0000000e+00 0.0000000e+00 
0.0000000e+00 0.0000000e+00 0.0000000e+00 
0.0000000e+00 0.0000000e+00 0.0000000e+00 
0.0000000e+00 0.0000000e+00 0.0000000e+00 
0.0000000e+00 0.0000000e+00 0.0000000e+00 
0.0000000e+00 0.0000000e+00 0.0000000e+00 
0.0000000e+00 0.0000000e+00 0.0000000e+00 
0.0000000e+00 0.0000000e+00 0.0000000e+00 
0.0000000e+00 0.0000000e+00 0.0000000e+00 
0.0000000e+00 0.0000000e+00 0.0000000e+00 
0.0000000e+00 0.0000000e+00 0.0000000e+00 
0.0000000e+00 0.0000000e+00 0.0000000e+00 
0.0000000e+00 0.0000000e+00 0.0000000e+00 
0.0000000e+00 0.0000000e+00 0.0000000e+00 
0.0000000e+00 0.0000000e+00 0.0000000e+00 
0.0000000e+00 0.0000000e+00 0.0000000e+00 
0.0000000e+00 0.0000000e+00 0.0000000e+00 
0.0000000e+00 0.0000000e+00 0.0000000e+00 
0.0000000e+00 0.0000000e+00 0.0000000e+00 
0.0000000e+00 0.0000000e+00 0.0000000e+00 
0.0000000e+00 0.0000000e+00 0.0000000e+00 
0.0000000e+00 0.0000000e+00 0.0000000e+00 
0.0000000e+00 0.0000000e+00 0.0000000e+00 
0.0000000e+00 0.0000000e+00 0.0000000e+00 
0.0000000e+00 0.0000000e+00 0.0000000e+00 
0.0000000e+00 0.0000000e+00 0.0000000e+00 
0.0000000e+00 0.0000000e+00 0.0000000e+00 
0.0000000e+00 0.0000000e+00 0.0000000e+00 
0.0000000e+00 0.0000000e+00 0.0000000e+00 
0.0000000e+00 0.0000000e+00 0.0000000e+00 
0.0000000e+00 0.0000000e+00 0.0000000e+00 
0.0000000e+00 0.0000000e+00 0.0000000e+00 
0.0000000e+00 0.0000000e+00 0.0000000e+00 
0.0000000e+00 0.0000000e+00 0.0000000e+00 
0.0000000e+00 0.0000000e+00 0.0000000e+00 
0.0000000e+00 0.0000000e+00 0.0000000e+00 
0.0000000e+00 0.0000000e+00 0.0000000e+00 
0.0000000e+00 0.0000000e+00 0.0000000e+00 
0.0000000e+00 0.0000000e+00 0.0000000e+00 
0.0000000e+00 0.0000000e+00 0.0000000e+00 
0.0000000e+00 0.0000000e+00 0.0000000e+00 
0.0000000e+00 0.0000000e+00 0.0000000e+00 
0.0000000e+00 0.0000000e+00 0.0000000e+00 
0.0000000e+00 0.0000000e+00 0.0000000e+00 
0.0000000e+00 0.0000000e+00 0.0000000e+00 
0.0000000e+00 0.0000000e+00 0.0000000e+00 
0.0000000e+00 0.0000000e+00 0.0000000e+00 
0.0000000e+00 0.0000000e+00 0.0000000e+00 
0.0000000e+00 0.0000000e+00 0.0000000e+00 
0.0000000e+00 0.0000000e+00 0.0000000e+00 
0.0000000e+00 0.0000000e+00 0.0000000e+00 
0.0000000e+00 0.0000000e+00 0.0000000e+00 
0.0000000e+00 0.0000000e+00 0.0000000e+00 
0.0000000e+00 0.0000000e+00 0.0000000e+00 
0.0000000e+00 0.0000000e+00 0.0000000e+00 
0.0000000e+00 0.0000000e+00 0.0000000e+00 
0.0000000e+00 0.0000000e+00 0.0000000e+00 
0.0000000e+00 0.0000000e+00 0.0000000e+00 
0.0000000e+00 0.0000000e+00 0.0000000e+00 
0.0000000e+00 0.0000000e+00 0.0000000e+00 
0.0000000e+00 0.0000000e+00 0.0000000e+00 
0.0000000e+00 0.0000000e+00 0.0000000e+00 
0.0000000e+00 0.0000000e+00 0.0000000e+00 
0.0000000e+00 0.0000000e+00 0.0000000e+00 
0.0000000e+00 0.0000000e+00 0.0000000e+00 
0.0000000e+00 0.0000000e+00 0.0000000e+00 
0.0000000e+00 0.0000000e+00 0.0000000e+00 
0.0000000e+00 0.0000000e+00 0.0000000e+00 
0.0000000e+00 0.0000000e+00 0.0000000e+00 
0.0000000e+00 0.0000000e+00 0.0000000e+00 
0.0000000e+00 0.0000000e+00 0.0000000e+00 
0.0000000e+00 0.0000000e+00 0.0000000e+00 
0.0000000e+00 0.0000000e+00 0.0000000e+00 
0.0000000e+00 0.0000000e+00 0.0000000e+00 
0.0000000e+00 0.0000000e+00 0.0000000e+00 
0.0000000e+00 0.0000000e+00 0.0000000e+00 
0.0000000e+00 0.0000000e+00 0.0000000e+00 
0.0000000e+00 0.0000000e+00 0.0000000e+00 
0.0000000e+00 0.0000000e+00 0.0000000e+00 
0.0000000e+00 0.0000000e+00 0.0000000e+00 
0.0000000e+00 0.0000000e+00 0.0000000e+00 
0.0000000e+00 0.0000000e+00 0.0000000e+00 
0.0000000e+00 0.0000000e+00 0.0000000e+00 
0.0000000e+00 0.0000000e+00 0.0000000e+00 
0.0000000e+00 0.0000000e+00 0.0000000e+00 
0.0000000e+00 0.0000000e+00 0.0000000e+00 
0.0000000e+00 0.0000000e+00 0.0000000e+00 
0.0000000e+00 0.0000000e+00 0.0000000e+00 
0.0000000e+00 0.0000000e+00 0.0000000e+00 
0.0000000e+00 0.0000000e+00 0.0000000e+00 
0.0000000e+00 0.0000000e+00 0.0000000e+00 
0.0000000e+00 0.0000000e+00 0.0000000e+00 
0.0000000e+00 0.0000000e+00 0.0000000e+00 
0.0000000e+00 0.0000000e+00 0.0000000e+00 
0.0000000e+00 0.0000000e+00 0.0000000e+00 
0.0000000e+00 0.0000000e+00 0.0000000e+00 
-5.4194371e-06 0.0000000e+00 1.2422532e-04 
0.0000000e+00 0.0000000e+00 0.0000000e+00 
-5.4194371e-06 0.0000000e+00 1.2422532e-04 
0.0000000e+00 0.0000000e+00 0.0000000e+00 
-1.0713388e-05 0.0000000e+00 2.4698728e-04 
0.0000000e+00 0.0000000e+00 0.0000000e+00 
-1.0713388e-05 0.0000000e+00 2.4698728e-04 
0.0000000e+00 0.0000000e+00 0.0000000e+00 
-1.6056712e-05 0.0000000e+00 3.7237738e-04 
0.0000000e+00 0.0000000e+00 0.0000000e+00 
-1.6056712e-05 0.0000000e+00 3.7237738e-04 
0.0000000e+00 0.0000000e+00 0.0000000e+00 
-2.2296935e-05 0.0000000e+00 5.2080164e-04 
0.0000000e+00 0.0000000e+00 0.0000000e+00 
-2.2296935e-05 0.0000000e+00 5.2080164e-04 
0.0000000e+00 0.0000000e+00 0.0000000e+00 
-2.9542022e-05 0.0000000e+00 6.9597974e-04 
0.0000000e+00 0.0000000e+00 0.0000000e+00 
0.0000000e+00 0.0000000e+00 0.0000000e+00 
-2.9542022e-05 0.0000000e+00 6.9597974e-04 
0.0000000e+00 0.0000000e+00 0.0000000e+00 
0.0000000e+00 0.0000000e+00 0.0000000e+00 
-3.6931155e-05 0.0000000e+00 8.7802348e-04 
0.0000000e+00 0.0000000e+00 0.0000000e+00 
-3.6931155e-05 0.0000000e+00 8.7802348e-04 
0.0000000e+00 0.0000000e+00 0.0000000e+00 
-4.4036506e-05 0.0000000e+00 1.0565438e-03 
0.0000000e+00 0.0000000e+00 0.0000000e+00 
-4.4036506e-05 0.0000000e+00 1.0565438e-03 
0.0000000e+00 0.0000000e+00 0.0000000e+00 
0.0000000e+00 0.0000000e+00 0.0000000e+00 
-5.0865507e-05 0.0000000e+00 1.2315807e-03 
0.0000000e+00 0.0000000e+00 0.0000000e+00 
-5.0865507e-05 0.0000000e+00 1.2315807e-03 
0.0000000e+00 0.0000000e+00 0.0000000e+00 
-5.7425440e-05 0.0000000e+00 1.4031713e-03 
0.0000000e+00 0.0000000e+00 0.0000000e+00 
-5.7425440e-05 0.0000000e+00 1.4031713e-03 
0.0000000e+00 0.0000000e+00 0.0000000e+00 
-6.3723441e-05 0.0000000e+00 1.5713531e-03 
0.0000000e+00 0.0000000e+00 0.0000000e+00 
-6.3723441e-05 0.0000000e+00 1.5713531e-03 
0.0000000e+00 0.0000000e+00 0.0000000e+00 
-6.9766541e-05 0.0000000e+00 1.7361661e-03 
0.0000000e+00 0.0000000e+00 0.0000000e+00 
-6.9766541e-05 0.0000000e+00 1.7361661e-03 
0.0000000e+00 0.0000000e+00 0.0000000e+00 
0.0000000e+00 0.0000000e+00 0.0000000e+00 
-7.5561534e-05 0.0000000e+00 1.8976468e-03 
0.0000000e+00 0.0000000e+00 0.0000000e+00 
-7.5561534e-05 0.0000000e+00 1.8976468e-03 
0.0000000e+00 0.0000000e+00 0.0000000e+00 
-8.1115037e-05 0.0000000e+00 2.0558310e-03 
0.0000000e+00 0.0000000e+00 0.0000000e+00 
-8.1115037e-05 0.0000000e+00 2.0558310e-03 
0.0000000e+00 0.0000000e+00 0.0000000e+00 
-8.6433539e-05 0.0000000e+00 2.2107570e-03 
0.0000000e+00 0.0000000e+00 0.0000000e+00 
-8.6433539e-05 0.0000000e+00 2.2107570e-03 
0.0000000e+00 0.0000000e+00 0.0000000e+00 
0.0000000e+00 0.0000000e+00 0.0000000e+00 
-9.1523294e-05 0.0000000e+00 2.3624590e-03 
-9.1523294e-05 0.0000000e+00 2.3624590e-03 
0.0000000e+00 0.0000000e+00 0.0000000e+00 
0.0000000e+00 0.0000000e+00 0.0000000e+00 
-9.6390402e-05 0.0000000e+00 2.5109719e-03 
-9.6390402e-05 0.0000000e+00 2.5109719e-03 
0.0000000e+00 0.0000000e+00 0.0000000e+00 
0.0000000e+00 0.0000000e+00 0.0000000e+00 
-1.0104077e-04 0.0000000e+00 2.6563284e-03 
-1.0104077e-04 0.0000000e+00 2.6563284e-03 
0.0000000e+00 0.0000000e+00 0.0000000e+00 
0.0000000e+00 0.0000000e+00 0.0000000e+00 
-1.0548019e-04 0.0000000e+00 2.7985636e-03 
-1.0548019e-04 0.0000000e+00 2.7985636e-03 
0.0000000e+00 0.0000000e+00 0.0000000e+00 
0.0000000e+00 0.0000000e+00 0.0000000e+00 
-1.0971425e-04 0.0000000e+00 2.9377088e-03 
0.0000000e+00 0.0000000e+00 0.0000000e+00 
-1.0971425e-04 0.0000000e+00 2.9377088e-03 
0.0000000e+00 0.0000000e+00 0.0000000e+00 
-1.1374837e-04 0.0000000e+00 3.0737947e-03 
0.0000000e+00 0.0000000e+00 0.0000000e+00 
-1.1374837e-04 0.0000000e+00 3.0737947e-03 
0.0000000e+00 0.0000000e+00 0.0000000e+00 
-1.1758787e-04 0.0000000e+00 3.2068541e-03 
0.0000000e+00 0.0000000e+00 0.0000000e+00 
-1.1758787e-04 0.0000000e+00 3.2068541e-03 
0.0000000e+00 0.0000000e+00 0.0000000e+00 
0.0000000e+00 0.0000000e+00 0.0000000e+00 
-1.2123790e-04 0.0000000e+00 3.3369162e-03 
0.0000000e+00 0.0000000e+00 0.0000000e+00 
-1.2123790e-04 0.0000000e+00 3.3369162e-03 
0.0000000e+00 0.0000000e+00 0.0000000e+00 
-1.2470344e-04 0.0000000e+00 3.4640094e-03 
0.0000000e+00 0.0000000e+00 0.0000000e+00 
-1.2470344e-04 0.0000000e+00 3.4640094e-03 
0.0000000e+00 0.0000000e+00 0.0000000e+00 
0.0000000e+00 0.0000000e+00 0.0000000e+00 
-1.2798941e-04 0.0000000e+00 3.5881647e-03 
-1.2798941e-04 0.0000000e+00 3.5881647e-03 
0.0000000e+00 0.0000000e+00 0.0000000e+00 
0.0000000e+00 0.0000000e+00 0.0000000e+00 
-1.3110054e-04 0.0000000e+00 3.7094092e-03 
-1.3110054e-04 0.0000000e+00 3.7094092e-03 
0.0000000e+00 0.0000000e+00 0.0000000e+00 
0.0000000e+00 0.0000000e+00 0.0000000e+00 
-1.3404144e-04 0.0000000e+00 3.8277699e-03 
-1.3404144e-04 0.0000000e+00 3.8277699e-03 
0.0000000e+00 0.0000000e+00 0.0000000e+00 
0.0000000e+00 0.0000000e+00 0.0000000e+00 
-1.3681664e-04 0.0000000e+00 3.9432747e-03 
-1.3681664e-04 0.0000000e+00 3.9432747e-03 
0.0000000e+00 0.0000000e+00 0.0000000e+00 
0.0000000e+00 0.0000000e+00 0.0000000e+00 
-1.3943053e-04 0.0000000e+00 4.0559504e-03 
-1.3943053e-04 0.0000000e+00 4.0559504e-03 
0.0000000e+00 0.0000000e+00 0.0000000e+00 
0.0000000e+00 0.0000000e+00 0.0000000e+00 
-1.4188738e-04 0.0000000e+00 4.1658224e-03 
0.0000000e+00 0.0000000e+00 0.0000000e+00 
-1.4188738e-04 0.0000000e+00 4.1658224e-03 
0.0000000e+00 0.0000000e+00 0.0000000e+00 
5.6542356e-06 0.0000000e+00 2.6618468e-04 
-1.4419135e-04 0.0000000e+00 4.2729145e-03 
5.6542356e-06 0.0000000e+00 2.6618468e-04 
-1.4419135e-04 0.0000000e+00 4.2729145e-03 
1.4596793e-05 0.0000000e+00 5.6500655e-04 
-1.4634655e-04 0.0000000e+00 4.3772546e-03 
1.4596793e-05 0.0000000e+00 5.6500655e-04 
-1.4634655e-04 0.0000000e+00 4.3772546e-03 
2.4822396e-05 0.0000000e+00 8.6586327e-04 
2.4822396e-05 0.0000000e+00 8.6586327e-04 
-1.4835694e-04 0.0000000e+00 4.4788656e-03 
-1.4835694e-04 0.0000000e+00 4.4788656e-03 
3.5319415e-05 0.0000000e+00 1.1570653e-03 
3.5319415e-05 0.0000000e+00 1.1570653e-03 
-1.5022637e-04 0.0000000e+00 4.5777700e-03 
-1.5022637e-04 0.0000000e+00 4.5777700e-03 
4.6042623e-05 0.0000000e+00 1.4390984e-03 
4.6042623e-05 0.0000000e+00 1.4390984e-03 
-1.5195868e-04 0.0000000e+00 4.6739942e-03 
-1.5195868e-04 0.0000000e+00 4.6739942e-03 
5.6954023e-05 0.0000000e+00 1.7123472e-03 
5.6954023e-05 0.0000000e+00 1.7123472e-03 
-1.5355754e-04 0.0000000e+00 4.7675598e-03 
-1.5355754e-04 0.0000000e+00 4.7675598e-03 
6.8019814e-05 0.0000000e+00 1.9771455e-03 
6.8019814e-05 0.0000000e+00 1.9771455e-03 
-1.5502653e-04 0.0000000e+00 4.8584880e-03 
-1.5502653e-04 0.0000000e+00 4.8584880e-03 
7.9210010e-05 0.0000000e+00 2.2337974e-03 
7.9210010e-05 0.0000000e+00 2.2337974e-03 
-1.5636924e-04 0.0000000e+00 4.9468039e-03 
9.0497380e-05 0.0000000e+00 2.4825733e-03 
-1.5636924e-04 0.0000000e+00 4.9468039e-03 
9.0497380e-05 0.0000000e+00 2.4825733e-03 
1.0185749e-04 0.0000000e+00 2.7237246e-03 
-1.5758909e-04 0.0000000e+00 5.0325279e-03 
1.0185749e-04 0.0000000e+00 2.7237246e-03 
-1.5758909e-04 0.0000000e+00 5.0325279e-03 
1.1326777e-04 0.0000000e+00 2.9574789e-03 
-1.5868944e-04 0.0000000e+00 5.1156811e-03 
1.1326777e-04 0.0000000e+00 2.9574789e-03 
-1.5868944e-04 0.0000000e+00 5.1156811e-03 
1.2470784e-04 0.0000000e+00 3.1840492e-03 
1.2470784e-04 0.0000000e+00 3.1840492e-03 
-1.5967359e-04 0.0000000e+00 5.1962845e-03 
-1.5967359e-04 0.0000000e+00 5.1962845e-03 
1.3615892e-04 0.0000000e+00 3.4036347e-03 
1.3615892e-04 0.0000000e+00 3.4036347e-03 
-1.6054478e-04 0.0000000e+00 5.2743603e-03 
-1.6054478e-04 0.0000000e+00 5.2743603e-03 
1.4760354e-04 0.0000000e+00 3.6164184e-03 
1.4760354e-04 0.0000000e+00 3.6164184e-03 
-1.6130614e-04 0.0000000e+00 5.3499276e-03 
-1.6130614e-04 0.0000000e+00 5.3499276e-03 
1.5902578e-04 0.0000000e+00 3.8225761e-03 
1.5902578e-04 0.0000000e+00 3.8225761e-03 
-1.6196076e-04 0.0000000e+00 5.4230063e-03 
-1.6196076e-04 0.0000000e+00 5.4230063e-03 
1.7041070e-04 0.0000000e+00 4.0222698e-03 
1.7041070e-04 0.0000000e+00 4.0222698e-03 
-1.6251167e-04 0.0000000e+00 5.4936178e-03 
-1.6251167e-04 0.0000000e+00 5.4936178e-03 
1.8174466e-04 0.0000000e+00 4.2156566e-03 
1.8174466e-04 0.0000000e+00 4.2156566e-03 
-1.6296181e-04 0.0000000e+00 5.5617802e-03 
-1.6296181e-04 0.0000000e+00 5.5617802e-03 
1.9301470e-04 0.0000000e+00 4.4028814e-03 
1.9301470e-04 0.0000000e+00 4.4028814e-03 
-1.6331406e-04 0.0000000e+00 5.6275125e-03 
-1.6331406e-04 0.0000000e+00 5.6275125e-03 
2.0420902e-04 0.0000000e+00 4.5840853e-03 
2.0420902e-04 0.0000000e+00 4.5840853e-03 
-1.6357128e-04 0.0000000e+00 5.6908352e-03 
2.1531657e-04 0.0000000e+00 4.7594021e-03 
-1.6357128e-04 0.0000000e+00 5.6908352e-03 
2.1531657e-04 0.0000000e+00 4.7594021e-03 
-1.6373622e-04 0.0000000e+00 5.7517656e-03 
2.2632689e-04 0.0000000e+00 4.9289574e-03 
-1.6373622e-04 0.0000000e+00 5.7517656e-03 
2.2632689e-04 0.0000000e+00 4.9289574e-03 
2.3723045e-04 0.0000000e+00 5.0928746e-03 
-1.6381159e-04 0.0000000e+00 5.8103227e-03 
2.3723045e-04 0.0000000e+00 5.0928746e-03 
-1.6381159e-04 0.0000000e+00 5.8103227e-03 
2.4801810e-04 0.0000000e+00 5.2512686e-03 
2.4801810e-04 0.0000000e+00 5.2512686e-03 
-1.6380004e-04 0.0000000e+00 5.8665234e-03 
-1.6380004e-04 0.0000000e+00 5.8665234e-03 
2.5868155e-04 0.0000000e+00 5.4042533e-03 
2.5868155e-04 0.0000000e+00 5.4042533e-03 
-1.6370420e-04 0.0000000e+00 5.9203870e-03 
-1.6370420e-04 0.0000000e+00 5.9203870e-03 
2.6921275e-04 0.0000000e+00 5.5519340e-03 
2.6921275e-04 0.0000000e+00 5.5519340e-03 
-1.6352660e-04 0.0000000e+00 5.9719311e-03 
-1.6352660e-04 0.0000000e+00 5.9719311e-03 
2.7960453e-04 0.0000000e+00 5.6944167e-03 
2.7960453e-04 0.0000000e+00 5.6944167e-03 
-1.6326972e-04 0.0000000e+00 6.0211715e-03 
-1.6326972e-04 0.0000000e+00 6.0211715e-03 
2.8984977e-04 0.0000000e+00 5.8317989e-03 
2.8984977e-04 0.0000000e+00 5.8317989e-03 
-1.6293605e-04 0.0000000e+00 6.0681272e-03 
-1.6293605e-04 0.0000000e+00 6.0681272e-03 
2.9994217e-04 0.0000000e+00 5.9641785e-03 
2.9994217e-04 0.0000000e+00 5.9641785e-03 
-1.6252796e-04 0.0000000e+00 6.1128147e-03 
-1.6252796e-04 0.0000000e+00 6.1128147e-03 
3.0987572e-04 0.0000000e+00 6.0916489e-03 
3.0987572e-04 0.0000000e+00 6.0916489e-03 
-1.6204779e-04 0.0000000e+00 6.1552495e-03 
-1.6204779e-04 0.0000000e+00 6.1552495e-03 
3.1964466e-04 0.0000000e+00 6.2142988e-03 
3.1964466e-04 0.0000000e+00 6.2142988e-03 
-1.6149788e-04 0.0000000e+00 6.1954498e-03 
-1.6149788e-04 0.0000000e+00 6.1954498e-03 
3.2924387e-04 0.0000000e+00 6.3322170e-03 
3.2924387e-04 0.0000000e+00 6.3322170e-03 
-1.6088047e-04 0.0000000e+00 6.2334315e-03 
-1.6088047e-04 0.0000000e+00 6.2334315e-03 
3.3866822e-04 0.0000000e+00 6.4454857e-03 
3.3866822e-04 0.0000000e+00 6.4454857e-03 
-1.6019777e-04 0.0000000e+00 6.2692095e-03 
-1.6019777e-04 0.0000000e+00 6.2692095e-03 
3.4791332e-04 0.0000000e+00 6.5541894e-03 
3.4791332e-04 0.0000000e+00 6.5541894e-03 
-1.5945196e-04 0.0000000e+00 6.3028014e-03 
-1.5945196e-04 0.0000000e+00 6.3028014e-03 
3.5697466e-04 0.0000000e+00 6.6584050e-03 
3.5697466e-04 0.0000000e+00 6.6584050e-03 
-1.5864517e-04 0.0000000e+00 6.3342225e-03 
3.6584847e-04 0.0000000e+00 6.7582124e-03 
-1.5864517e-04 0.0000000e+00 6.3342225e-03 
3.6584847e-04 0.0000000e+00 6.7582124e-03 
3.7453078e-04 0.0000000e+00 6.8536840e-03 
-1.5777949e-04 0.0000000e+00 6.3634882e-03 
3.7453078e-04 0.0000000e+00 6.8536840e-03 
-1.5777949e-04 0.0000000e+00 6.3634882e-03 
3.8301828e-04 0.0000000e+00 6.9448945e-03 
-1.5685695e-04 0.0000000e+00 6.3906127e-03 
3.8301828e-04 0.0000000e+00 6.9448945e-03 
-1.5685695e-04 0.0000000e+00 6.3906127e-03 
3.9130779e-04 0.0000000e+00 7.0319159e-03 
3.9130779e-04 0.0000000e+00 7.0319159e-03 
-1.5587958e-04 0.0000000e+00 6.4156136e-03 
-1.5587958e-04 0.0000000e+00 6.4156136e-03 
3.9939613e-04 0.0000000e+00 7.1148148e-03 
3.9939613e-04 0.0000000e+00 7.1148148e-03 
-1.5484934e-04 0.0000000e+00 6.4385044e-03 
-1.5484934e-04 0.0000000e+00 6.4385044e-03 
4.0728077e-04 0.0000000e+00 7.1936617e-03 
4.0728077e-04 0.0000000e+00 7.1936617e-03 
-1.5376817e-04 0.0000000e+00 6.4593007e-03 
-1.5376817e-04 0.0000000e+00 6.4593007e-03 
4.1495892e-04 0.0000000e+00 7.2685197e-03 
4.1495892e-04 0.0000000e+00 7.2685197e-03 
-1.5263795e-04 0.0000000e+00 6.4780170e-03 
-1.5263795e-04 0.0000000e+00 6.4780170e-03 
4.2242847e-04 0.0000000e+00 7.3394560e-03 
4.2242847e-04 0.0000000e+00 7.3394560e-03 
-1.5146056e-04 0.0000000e+00 6.4946677e-03 
-1.5146056e-04 0.0000000e+00 6.4946677e-03 
4.2968703e-04 0.0000000e+00 7.4065304e-03 
4.2968703e-04 0.0000000e+00 7.4065304e-03 
-1.5023781e-04 0.0000000e+00 6.5092679e-03 
-1.5023781e-04 0.0000000e+00 6.5092679e-03 
4.3673277e-04 0.0000000e+00 7.4698064e-03 
4.3673277e-04 0.0000000e+00 7.4698064e-03 
-1.4897149e-04 0.0000000e+00 6.5218317e-03 
-1.4897149e-04 0.0000000e+00 6.5218317e-03 
4.4356391e-04 0.0000000e+00 7.5293438e-03 
4.4356391e-04 0.0000000e+00 7.5293438e-03 
-1.4766337e-04 0.0000000e+00 6.5323730e-03 
-1.4766337e-04 0.0000000e+00 6.5323730e-03 
4.5017873e-04 0.0000000e+00 7.5852005e-03 
4.5017873e-04 0.0000000e+00 7.5852005e-03 
-1.4631516e-04 0.0000000e+00 6.5409063e-03 
-1.4631516e-04 0.0000000e+00 6.5409063e-03 
4.5657587e-04 0.0000000e+00 7.6374352e-03 
4.5657587e-04 0.0000000e+00 7.6374352e-03 
-1.4492855e-04 0.0000000e+00 6.5474455e-03 
-1.4492855e-04 0.0000000e+00 6.5474455e-03 
4.6275385e-04 0.0000000e+00 7.6861022e-03 
4.6275385e-04 0.0000000e+00 7.6861022e-03 
-1.4350521e-04 0.0000000e+00 6.5520042e-03 
-1.4350521e-04 0.0000000e+00 6.5520042e-03 
4.6871164e-04 0.0000000e+00 7.7312582e-03 
4.6871164e-04 0.0000000e+00 7.7312582e-03 
-1.4204676e-04 0.0000000e+00 6.5545969e-03 
-1.4204676e-04 0.0000000e+00 6.5545969e-03 
4.7444787e-04 0.0000000e+00 7.7729526e-03 
4.7444787e-04 0.0000000e+00 7.7729526e-03 
-1.4055481e-04 0.0000000e+00 6.5552371e-03 
-1.4055481e-04 0.0000000e+00 6.5552371e-03 
4.7993590e-04 0.0000000e+00 7.8110680e-03 
4.7993590e-04 0.0000000e+00 7.8110680e-03 
-1.3902632e-04 0.0000000e+00 6.5539302e-03 
-1.3902632e-04 0.0000000e+00 6.5539302e-03 
4.8623081e-04 0.0000000e+00 7.8524376e-03 
4.8623081e-04 0.0000000e+00 7.8524376e-03 
-1.3715184e-04 0.0000000e+00 6.5498049e-03 
-1.3715184e-04 0.0000000e+00 6.5498049e-03 
4.9336415e-04 0.0000000e+00 7.8958976e-03 
4.9336415e-04 0.0000000e+00 7.8958976e-03 
-1.3484799e-04 0.0000000e+00 6.5412053e-03 
-1.3484799e-04 0.0000000e+00 6.5412053e-03 
5.0131591e-04 0.0000000e+00 7.9393274e-03 
5.0131591e-04 0.0000000e+00 7.9393274e-03 
-1.3204000e-04 0.0000000e+00 6.5258699e-03 
-1.3204000e-04 0.0000000e+00 6.5258699e-03 
5.0897473e-04 0.0000000e+00 7.9750435e-03 
5.0897473e-04 0.0000000e+00 7.9750435e-03 
-1.2916128e-04 0.0000000e+00 6.5050338e-03 
-1.2916128e-04 0.0000000e+00 6.5050338e-03 
5.1589418e-04 0.0000000e+00 8.0007300e-03 
5.1589418e-04 0.0000000e+00 8.0007300e-03 
-1.2621878e-04 0.0000000e+00 6.4787619e-03 
-1.2621878e-04 0.0000000e+00 6.4787619e-03 
5.2207476e-04 0.0000000e+00 8.0166596e-03 
5.2207476e-04 0.0000000e+00 8.0166596e-03 
-1.2321924e-04 0.0000000e+00 6.4471177e-03 
-1.2321924e-04 0.0000000e+00 6.4471177e-03 
5.2751790e-04 0.0000000e+00 8.0230955e-03 
5.2751790e-04 0.0000000e+00 8.0230955e-03 
-1.2016916e-04 0.0000000e+00 6.4101649e-03 
-1.2016916e-04 0.0000000e+00 6.4101649e-03 
5.3222561e-04 0.0000000e+00 8.0202903e-03 
5.3222561e-04 0.0000000e+00 8.0202903e-03 
-1.1707486e-04 0.0000000e+00 6.3679658e-03 
-1.1707486e-04 0.0000000e+00 6.3679658e-03 
5.3620110e-04 0.0000000e+00 8.0084934e-03 
5.3620110e-04 0.0000000e+00 8.0084934e-03 
-1.1394243e-04 0.0000000e+00 6.3205824e-03 
-1.1394243e-04 0.0000000e+00 6.3205824e-03 
5.3944806e-04 0.0000000e+00 7.9879439e-03 
5.3944806e-04 0.0000000e+00 7.9879439e-03 
-1.1077776e-04 0.0000000e+00 6.2680760e-03 
-1.1077776e-04 0.0000000e+00 6.2680760e-03 
5.4197126e-04 0.0000000e+00 7.9588786e-03 