# vtk DataFile Version 4.0
vtk output
ASCII
DATASET UNSTRUCTURED_GRID
POINTS 824 float
-6.4148600e-05 1.0000000e-02 -4.4525366e-03 
-1.0680180e-04 1.0000000e-02 -2.8088474e-03 
3.4513260e-04 1.0000000e-02 -6.0450544e-03 
1.3803532e-03 1.0000000e-02 -7.3230534e-03 
6.5829700e-05 1.0000000e-02 -1.1736922e-03 
2.7142144e-03 1.0000000e-02 -8.2851896e-03 
5.0392030e-04 1.0000000e-02 6.5784910e-04 
4.1780764e-03 1.0000000e-02 -9.0342357e-03 
1.1628646e-03 1.0000000e-02 2.4220088e-03 
5.7070961e-03 1.0000000e-02 -9.6390187e-03 
2.0046218e-03 1.0000000e-02 4.1066196e-03 
7.2731595e-03 1.0000000e-02 -1.0140047e-02 
-6.4148600e-05 0.0000000e+00 -4.4525366e-03 
-1.0680180e-04 0.0000000e+00 -2.8088474e-03 
3.4513260e-04 0.0000000e+00 -6.0450544e-03 
1.3803532e-03 0.0000000e+00 -7.3230534e-03 
6.5829700e-05 0.0000000e+00 -1.1736922e-03 
2.9952540e-03 1.0000000e-02 5.7082181e-03 
8.8622628e-03 1.0000000e-02 -1.0562311e-02 
2.7142144e-03 0.0000000e+00 -8.2851896e-03 
5.0392030e-04 0.0000000e+00 6.5784910e-04 
4.1780764e-03 0.0000000e+00 -9.0342357e-03 
1.1628646e-03 0.0000000e+00 2.4220088e-03 
1.0466628e-02 1.0000000e-02 -1.0922252e-02 
4.1067238e-03 1.0000000e-02 7.2284501e-03 
5.7070961e-03 0.0000000e+00 -9.6390187e-03 
2.0046218e-03 0.0000000e+00 4.1066196e-03 
7.2731595e-03 0.0000000e+00 -1.0140047e-02 
1.2081579e-02 1.0000000e-02 -1.1231240e-02 
5.3166988e-03 1.0000000e-02 8.6715129e-03 
2.9952540e-03 0.0000000e+00 5.7082181e-03 
8.8622628e-03 0.0000000e+00 -1.0562311e-02 
1.3704120e-02 1.0000000e-02 -1.1497501e-02 
1.0466628e-02 0.0000000e+00 -1.0922252e-02 
4.1067238e-03 0.0000000e+00 7.2284501e-03 
6.6076374e-03 1.0000000e-02 1.0042624e-02 
1.5332244e-02 1.0000000e-02 -1.1727173e-02 
1.2081579e-02 0.0000000e+00 -1.1231240e-02 
5.3166988e-03 0.0000000e+00 8.6715129e-03 
7.9658343e-03 1.0000000e-02 1.1347144e-02 
1.3704120e-02 0.0000000e+00 -1.1497501e-02 
1.6964543e-02 1.0000000e-02 -1.1925002e-02 
6.6076374e-03 0.0000000e+00 1.0042624e-02 
9.3804686e-03 1.0000000e-02 1.2590236e-02 
1.5332244e-02 0.0000000e+00 -1.1727173e-02 
1.8600004e-02 1.0000000e-02 -1.2094716e-02 
7.9658343e-03 0.0000000e+00 1.1347144e-02 
1.6964543e-02 0.0000000e+00 -1.1925002e-02 
1.0843002e-02 1.0000000e-02 1.3776601e-02 
2.0237876e-02 1.0000000e-02 -1.2239318e-02 
9.3804686e-03 0.0000000e+00 1.2590236e-02 
1.8600004e-02 0.0000000e+00 -1.2094716e-02 
1.2346566e-02 1.0000000e-02 1.4910517e-02 
2.1877591e-02 1.0000000e-02 -1.2361246e-02 
1.0843002e-02 0.0000000e+00 1.3776601e-02 
2.0237876e-02 0.0000000e+00 -1.2239318e-02 
1.3885623e-02 1.0000000e-02 1.5995768e-02 
2.3518711e-02 1.0000000e-02 -1.2462540e-02 
1.2346566e-02 0.0000000e+00 1.4910517e-02 
2.1877591e-02 0.0000000e+00 -1.2361246e-02 
2.5160890e-02 1.0000000e-02 -1.2544903e-02 
1.5455654e-02 1.0000000e-02 1.7035707e-02 
1.3885623e-02 0.0000000e+00 1.5995768e-02 
2.3518711e-02 0.0000000e+00 -1.2462540e-02 
2.6803852e-02 1.0000000e-02 -1.2609772e-02 
1.7052912e-02 1.0000000e-02 1.8033321e-02 
2.5160890e-02 0.0000000e+00 -1.2544903e-02 
1.5455654e-02 0.0000000e+00 1.7035707e-02 
2.8447376e-02 1.0000000e-02 -1.2658389e-02 
2.6803852e-02 0.0000000e+00 -1.2609772e-02 
1.7052912e-02 0.0000000e+00 1.8033321e-02 
1.8674284e-02 1.0000000e-02 1.8991246e-02 
3.0091279e-02 1.0000000e-02 -1.2691814e-02 
2.8447376e-02 0.0000000e+00 -1.2658389e-02 
1.8674284e-02 0.0000000e+00 1.8991246e-02 
2.0317149e-02 1.0000000e-02 1.9911822e-02 
3.0091279e-02 0.0000000e+00 -1.2691814e-02 
3.1735410e-02 1.0000000e-02 -1.2710971e-02 
2.0317149e-02 0.0000000e+00 1.9911822e-02 
2.1979295e-02 1.0000000e-02 2.0797113e-02 
3.1735410e-02 0.0000000e+00 -1.2710971e-02 
3.3379643e-02 1.0000000e-02 -1.2716676e-02 
2.1979295e-02 0.0000000e+00 2.0797113e-02 
2.3658832e-02 1.0000000e-02 2.1648949e-02 
3.3379643e-02 0.0000000e+00 -1.2716676e-02 
3.5023871e-02 1.0000000e-02 -1.2709629e-02 
2.3658832e-02 0.0000000e+00 2.1648949e-02 
2.5354100e-02 1.0000000e-02 2.2469029e-02 
3.5023871e-02 0.0000000e+00 -1.2709629e-02 
3.6668001e-02 1.0000000e-02 -1.2690457e-02 
2.5354100e-02 0.0000000e+00 2.2469029e-02 
2.7063712e-02 1.0000000e-02 2.3258772e-02 
3.6668001e-02 0.0000000e+00 -1.2690457e-02 
3.8312016e-02 1.0000000e-02 -1.2663038e-02 
2.7063712e-02 0.0000000e+00 2.3258772e-02 
3.8312016e-02 0.0000000e+00 -1.2663038e-02 
2.8786417e-02 1.0000000e-02 2.4019532e-02 
3.9956032e-02 1.0000000e-02 -1.2635752e-02 
2.8786417e-02 0.0000000e+00 2.4019532e-02 
3.9956032e-02 0.0000000e+00 -1.2635752e-02 
3.0521135e-02 1.0000000e-02 2.4752486e-02 
4.1600048e-02 1.0000000e-02 -1.2608467e-02 
3.0521135e-02 0.0000000e+00 2.4752486e-02 
4.1600048e-02 0.0000000e+00 -1.2608467e-02 
3.2266919e-02 1.0000000e-02 2.5458676e-02 
4.3299814e-02 1.0000000e-02 -1.2580255e-02 
3.2266919e-02 0.0000000e+00 2.5458676e-02 
4.3299814e-02 0.0000000e+00 -1.2580255e-02 
3.4022902e-02 1.0000000e-02 2.6139111e-02 
4.5339533e-02 1.0000000e-02 -1.2546402e-02 
3.4022902e-02 0.0000000e+00 2.6139111e-02 
4.5339533e-02 0.0000000e+00 -1.2546402e-02 
3.5788340e-02 1.0000000e-02 2.6794623e-02 
4.7787196e-02 1.0000000e-02 -1.2505778e-02 
3.5788340e-02 0.0000000e+00 2.6794623e-02 
3.7562554e-02 1.0000000e-02 2.7425996e-02 
4.7787196e-02 0.0000000e+00 -1.2505778e-02 
3.7562554e-02 0.0000000e+00 2.7425996e-02 
3.9344928e-02 1.0000000e-02 2.8033950e-02 
5.0379113e-02 1.0000000e-02 -1.2462760e-02 
3.9344928e-02 0.0000000e+00 2.8033950e-02 
5.0379113e-02 0.0000000e+00 -1.2462760e-02 
4.1134916e-02 1.0000000e-02 2.8619109e-02 
5.2971029e-02 1.0000000e-02 -1.2419741e-02 
4.1134916e-02 0.0000000e+00 2.8619109e-02 
5.2971029e-02 0.0000000e+00 -1.2419741e-02 
4.2932026e-02 1.0000000e-02 2.9182016e-02 
4.2932026e-02 0.0000000e+00 2.9182016e-02 
5.5562946e-02 1.0000000e-02 -1.2376723e-02 
4.5339682e-02 1.0000000e-02 2.9899231e-02 
5.5562946e-02 0.0000000e+00 -1.2376723e-02 
4.5339682e-02 0.0000000e+00 2.9899231e-02 
5.8154863e-02 1.0000000e-02 -1.2333705e-02 
4.7758221e-02 1.0000000e-02 3.0578844e-02 
5.8154863e-02 0.0000000e+00 -1.2333705e-02 
4.7758221e-02 0.0000000e+00 3.0578844e-02 
6.0746779e-02 1.0000000e-02 -1.2290686e-02 
5.0186760e-02 1.0000000e-02 3.1221807e-02 
6.0746779e-02 0.0000000e+00 -1.2290686e-02 
5.0186760e-02 0.0000000e+00 3.1221807e-02 
6.3338696e-02 1.0000000e-02 -1.2247668e-02 
5.2624513e-02 1.0000000e-02 3.1828903e-02 
6.3338696e-02 0.0000000e+00 -1.2247668e-02 
5.2624513e-02 0.0000000e+00 3.1828903e-02 
5.5070762e-02 1.0000000e-02 3.2400804e-02 
6.5930613e-02 1.0000000e-02 -1.2204650e-02 
5.5070762e-02 0.0000000e+00 3.2400804e-02 
6.5930613e-02 0.0000000e+00 -1.2204650e-02 
5.7524847e-02 1.0000000e-02 3.2938082e-02 
6.8522529e-02 1.0000000e-02 -1.2161631e-02 
5.7524847e-02 0.0000000e+00 3.2938082e-02 
6.8522529e-02 0.0000000e+00 -1.2161631e-02 
5.9986169e-02 1.0000000e-02 3.3441170e-02 
7.1114446e-02 1.0000000e-02 -1.2118613e-02 
5.9986169e-02 0.0000000e+00 3.3441170e-02 
7.1114446e-02 0.0000000e+00 -1.2118613e-02 
6.2454163e-02 1.0000000e-02 3.3910436e-02 
6.2454163e-02 0.0000000e+00 3.3910436e-02 
7.3706362e-02 1.0000000e-02 -1.2075595e-02 
7.3706362e-02 0.0000000e+00 -1.2075595e-02 
6.4928303e-02 1.0000000e-02 3.4346139e-02 
6.4928303e-02 0.0000000e+00 3.4346139e-02 
7.6298279e-02 1.0000000e-02 -1.2032577e-02 
7.6298279e-02 0.0000000e+00 -1.2032577e-02 
6.7408092e-02 1.0000000e-02 3.4748446e-02 
6.7408092e-02 0.0000000e+00 3.4748446e-02 
7.8890196e-02 1.0000000e-02 -1.1989558e-02 
7.8890196e-02 0.0000000e+00 -1.1989558e-02 
6.9893057e-02 1.0000000e-02 3.5117436e-02 
6.9893057e-02 0.0000000e+00 3.5117436e-02 
8.1482112e-02 1.0000000e-02 -1.1946540e-02 
8.1482112e-02 0.0000000e+00 -1.1946540e-02 
7.2382742e-02 1.0000000e-02 3.5453098e-02 
7.2382742e-02 0.0000000e+00 3.5453098e-02 
8.4074029e-02 1.0000000e-02 -1.1903522e-02 
7.4876707e-02 1.0000000e-02 3.5755332e-02 
8.4074029e-02 0.0000000e+00 -1.1903522e-02 
7.4876707e-02 0.0000000e+00 3.5755332e-02 
8.6665946e-02 1.0000000e-02 -1.1860503e-02 
7.7374516e-02 1.0000000e-02 3.6023948e-02 
8.6665946e-02 0.0000000e+00 -1.1860503e-02 
7.7374516e-02 0.0000000e+00 3.6023948e-02 
8.9257862e-02 1.0000000e-02 -1.1817485e-02 
7.9875738e-02 1.0000000e-02 3.6258665e-02 
8.9257862e-02 0.0000000e+00 -1.1817485e-02 
7.9875738e-02 0.0000000e+00 3.6258665e-02 
8.2379940e-02 1.0000000e-02 3.6459105e-02 
9.1849779e-02 1.0000000e-02 -1.1774467e-02 
8.2379940e-02 0.0000000e+00 3.6459105e-02 
9.1849779e-02 0.0000000e+00 -1.1774467e-02 
8.4886681e-02 1.0000000e-02 3.6624786e-02 
9.4441696e-02 1.0000000e-02 -1.1731448e-02 
8.4886681e-02 0.0000000e+00 3.6624786e-02 
9.4441696e-02 0.0000000e+00 -1.1731448e-02 
8.7395510e-02 1.0000000e-02 3.6755108e-02 
8.7395510e-02 0.0000000e+00 3.6755108e-02 
9.7033612e-02 1.0000000e-02 -1.1688430e-02 
9.7033612e-02 0.0000000e+00 -1.1688430e-02 
8.9905951e-02 1.0000000e-02 3.6849401e-02 
8.9905951e-02 0.0000000e+00 3.6849401e-02 
9.9625529e-02 1.0000000e-02 -1.1645412e-02 
9.9625529e-02 0.0000000e+00 -1.1645412e-02 
9.2417505e-02 1.0000000e-02 3.6906832e-02 
9.2417505e-02 0.0000000e+00 3.6906832e-02 
1.0221745e-01 1.0000000e-02 -1.1602393e-02 
1.0221745e-01 0.0000000e+00 -1.1602393e-02 
9.4929640e-02 1.0000000e-02 3.6926425e-02 
9.4929640e-02 0.0000000e+00 3.6926425e-02 
1.0480936e-01 1.0000000e-02 -1.1559375e-02 
1.0480936e-01 0.0000000e+00 -1.1559375e-02 
9.7441776e-02 1.0000000e-02 3.6907077e-02 
9.7441776e-02 0.0000000e+00 3.6907077e-02 
1.0740128e-01 1.0000000e-02 -1.1516357e-02 
1.0740128e-01 0.0000000e+00 -1.1516357e-02 
9.9953281e-02 1.0000000e-02 3.6847529e-02 
9.9953281e-02 0.0000000e+00 3.6847529e-02 
1.0999320e-01 1.0000000e-02 -1.1473339e-02 
1.0246345e-01 1.0000000e-02 3.6746314e-02 
1.0999320e-01 0.0000000e+00 -1.1473339e-02 
1.0246345e-01 0.0000000e+00 3.6746314e-02 
1.0497150e-01 1.0000000e-02 3.6601738e-02 
1.1258511e-01 1.0000000e-02 -1.1430320e-02 
1.0497150e-01 0.0000000e+00 3.6601738e-02 
1.1258511e-01 0.0000000e+00 -1.1430320e-02 
1.0747666e-01 1.0000000e-02 3.6413638e-02 
1.1517703e-01 1.0000000e-02 -1.1387302e-02 
1.0747666e-01 0.0000000e+00 3.6413638e-02 
[...]
POINT_DATA 824
FIELD FieldData 2
DISPLACEMENT 3 824  float
0.0000000e+00 0.0000000e+00 0.0000000e+00 
0.0000000e+00 0.0000000e+00 0.0000000e+00 
0.0000000e+00 0.0000000e+00 0.0000000e+00 
0.0000000e+00 0.0000000e+00 0.0000000e+00 
0.0000000e+00 0.0000000e+00 0.0000000e+00 
0.0000000e+00 0.0000000e+00 0.0000000e+00 
0.0000000e+00 0.0000000e+00 0.0000000e+00 
0.0000000e+00 0.0000000e+00 0.0000000e+00 
0.0000000e+00 0.0000000e+00 0.0000000e+00 
0.0000000e+00 0.0000000e+00 0.0000000e+00 
0.0000000e+00 0.0000000e+00 0.0000000e+00 
0.0000000e+00 0.0000000e+00 0.0000000e+00 
0.0000000e+00 0.0000000e+00 0.0000000e+00 
0.0000000e+00 0.0000000e+00 0.0000000e+00 
0.0000000e+00 0.0000000e+00 0.0000000e+00 
0.0000000e+00 0.0000000e+00 0.0000000e+00 
0.0000000e+00 0.0000000e+00 0.0000000e+00 
0.0000000e+00 0.0000000e+00 0.0000000e+00 
0.0000000e+00 0.0000000e+00 0.0000000e+00 
0.0000000e+00 0.0000000e+00 0.0000000e+00 
0.0000000e+00 0.0000000e+00 0.0000000e+00 
0.0000000e+00 0.0000000e+00 0.0000000e+00 
0.0000000e+00 0.0000000e+00 0.0000000e+00 
0.0000000e+00 0.0000000e+00 0.0000000e+00 
0.0000000e+00 0.0000000e+00 0.0000000e+00 
0.0000000e+00 0.0000000e+00 0.0000000e+00 
0.0000000e+00 0.0000000e+00 0.0000000e+00 
0.0000000e+00 0.0000000e+00 0.0000000e+00 
0.0000000e+00 0.0000000e+00 0.0000000e+00 
0.0000000e+00 0.0000000e+00 0.0000000e+00 
0.0000000e+00 0.0000000e+00 0.0000000e+00 
0.0000000e+00 0.0000000e+00 0.0000000e+00 
0.0000000e+00 0.0000000e+00 0.0000000e+00 
0.0000000e+00 0.0000000e+00 0.0000000e+00 
0.0000000e+00 0.0000000e+00 0.0000000e+00 
0.0000000e+00 0.0000000e+00 0.0000000e+00 
0.0000000e+00 0.0000000e+00 0.0000000e+00 
0.0000000e+00 0.0000000e+00 0.0000000e+00 
0.0000000e+00 0.0000000e+00 0.0000000e+00 
0.0000000e+00 0.0000000e+00 0.0000000e+00 
0.0000000e+00 0.0000000e+00 0.0000000e+00 
0.0000000e+00 0.0000000e+00 0.0000000e+00 
0.0000000e+00 0.0000000e+00 0.0000000e+00 
0.0000000e+00 0.0000000e+00 0.0000000e+00 
0.0000000e+00 0.0000000e+00 0.0000000e+00 
0.0000000e+00 0.0000000e+00 0.0000000e+00 
0.0000000e+00 0.0000000e+00 0.0000000e+00 
0.0000000e+00 0.0000000e+00 0.0000000e+00 
0.0000000e+00 0.0000000e+00 0.0000000e+00 
0.0000000e+00 0.0000000e+00 0.0000000e+00 
0.0000000e+00 0.0000000e+00 0.0000000e+00 
0.0000000e+00 0.0000000e+00 0.0000000e+00 
0.0000000e+00 0.0000000e+00 0.0000000e+00 
0.0000000e+00 0.0000000e+00 0.0000000e+00 
0.0000000e+00 0.0000000e+00 0.0000000e+00 
0.0000000e+00 0.0000000e+00 0.0000000e+00 
0.0000000e+00 0.0000000e+00 0.0000000e+00 
0.0000000e+00 0.0000000e+00 0.0000000e+00 
0.0000000e+00 0.0000000e+00 0.0000000e+00 
0.0000000e+00 0.0000000e+00 0.0000000e+00 
0.0000000e+00 0.0000000e+00 0.0000000e+00 
0.0000000e+00 0.0000000e+00 0.0000000e+00 
0.0000000e+00 0.0000000e+00 0.0000000e+00 
0.0000000e+00 0.0000000e+00 0.0000000e+00 
0.0000000e+00 0.0000000e+00 0.0000000e+00 
0.0000000e+00 0.0000000e+00 0.0000000e+00 
0.0000000e+00 0.0000000e+00 0.0000000e+00 
0.0000000e+00 0.0000000e+00 0.0000000e+00 
0.0000000e+00 0.0000000e+00 0.0000000e+00 
0.0000000e+00 0.0000000e+00 0.0000000e+00 
0.0000000e+00 0.0000000e+00 0.0000000e+00 
0.0000000e+00 0.0000000e+00 0.0000000e+00 
0.0000000e+00 0.0000000e+00 0.0000000e+00 
0.0000000e+00 0.0000000e+00 0.0000000e+00 
0.0000000e+00 0.0000000e+00 0.0000000e+00 
0.0000000e+00 0.0000000e+00 0.0000000e+00 
0.0000000e+00 0.0000000e+00 0.0000000e+00 
0.0000000e+00 0.0000000e+00 0.0000000e+00 
0.0000000e+00 0.0000000e+00 0.0000000e+00 
0.0000000e+00 0.0000000e+00 0.0000000e+00 
0.0000000e+00 0.0000000e+00 0.0000000e+00 
0.0000000e+00 0.0000000e+00 0.0000000e+00 
0.0000000e+00 0.0000000e+00 0.0000000e+00 
0.0000000e+00 0.0000000e+00 0.0000000e+00 
0.0000000e+00 0.0000000e+00 0.0000000e+00 
0.0000000e+00 0.0000000e+00 0.0000000e+00 
0.0000000e+00 0.0000000e+00 0.0000000e+00 
0.0000000e+00 0.0000000e+00 0.0000000e+00 
0.0000000e+00 0.0000000e+00 0.0000000e+00 
0.0000000e+00 0.0000000e+00 0.0000000e+00 
0.0000000e+00 0.0000000e+00 0.0000000e+00 
0.0000000e+00 0.0000000e+00 0.0000000e+00 
0.0000000e+00 0.0000000e+00 0.0000000e+00 
0.0000000e+00 0.0000000e+00 0.0000000e+00 
0.0000000e+00 0.0000000e+00 0.0000000e+00 
0.0000000e+00 0.0000000e+00 0.0000000e+00 
0.0000000e+00 0.0000000e+00 0.0000000e+00 
-3.1743508e-05 0.0000000e+00 4.0664265e-04 
0.0000000e+00 0.0000000e+00 0.0000000e+00 
-3.1743508e-05 0.0000000e+00 4.0664265e-04 
0.0000000e+00 0.0000000e+00 0.0000000e+00 
-6.3964336e-05 0.0000000e+00 8.1510125e-04 
0.0000000e+00 0.0000000e+00 0.0000000e+00 
-6.3964336e-05 0.0000000e+00 8.1510125e-04 
0.0000000e+00 0.0000000e+00 0.0000000e+00 
-9.7728503e-05 0.0000000e+00 1.2391123e-03 
0.0000000e+00 0.0000000e+00 0.0000000e+00 
-9.7728503e-05 0.0000000e+00 1.2391123e-03 
0.0000000e+00 0.0000000e+00 0.0000000e+00 
-1.3892868e-04 0.0000000e+00 1.7504919e-03 
0.0000000e+00 0.0000000e+00 0.0000000e+00 
-1.3892868e-04 0.0000000e+00 1.7504919e-03 
0.0000000e+00 0.0000000e+00 0.0000000e+00 
-1.8925311e-04 0.0000000e+00 2.3674390e-03 
0.0000000e+00 0.0000000e+00 0.0000000e+00 
0.0000000e+00 0.0000000e+00 0.0000000e+00 
-1.8925311e-04 0.0000000e+00 2.3674390e-03 
0.0000000e+00 0.0000000e+00 0.0000000e+00 
0.0000000e+00 0.0000000e+00 0.0000000e+00 
-2.4322953e-04 0.0000000e+00 3.0232802e-03 
0.0000000e+00 0.0000000e+00 0.0000000e+00 
-2.4322953e-04 0.0000000e+00 3.0232802e-03 
0.0000000e+00 0.0000000e+00 0.0000000e+00 
-2.9775151e-04 0.0000000e+00 3.6811254e-03 
0.0000000e+00 0.0000000e+00 0.0000000e+00 
-2.9775151e-04 0.0000000e+00 3.6811254e-03 
0.0000000e+00 0.0000000e+00 0.0000000e+00 
0.0000000e+00 0.0000000e+00 0.0000000e+00 
-3.5287161e-04 0.0000000e+00 4.3411619e-03 
0.0000000e+00 0.0000000e+00 0.0000000e+00 
-3.5287161e-04 0.0000000e+00 4.3411619e-03 
0.0000000e+00 0.0000000e+00 0.0000000e+00 
-4.0828395e-04 0.0000000e+00 5.0022654e-03 
0.0000000e+00 0.0000000e+00 0.0000000e+00 
-4.0828395e-04 0.0000000e+00 5.0022654e-03 
0.0000000e+00 0.0000000e+00 0.0000000e+00 
-4.6349098e-04 0.0000000e+00 5.6626115e-03 
0.0000000e+00 0.0000000e+00 0.0000000e+00 
-4.6349098e-04 0.0000000e+00 5.6626115e-03 
0.0000000e+00 0.0000000e+00 0.0000000e+00 
-5.1839875e-04 0.0000000e+00 6.3218548e-03 
0.0000000e+00 0.0000000e+00 0.0000000e+00 
-5.1839875e-04 0.0000000e+00 6.3218548e-03 
0.0000000e+00 0.0000000e+00 0.0000000e+00 
0.0000000e+00 0.0000000e+00 0.0000000e+00 
-5.7306523e-04 0.0000000e+00 6.9802071e-03 
0.0000000e+00 0.0000000e+00 0.0000000e+00 
-5.7306523e-04 0.0000000e+00 6.9802071e-03 
0.0000000e+00 0.0000000e+00 0.0000000e+00 
-6.2711396e-04 0.0000000e+00 7.6362610e-03 
0.0000000e+00 0.0000000e+00 0.0000000e+00 
-6.2711396e-04 0.0000000e+00 7.6362610e-03 
0.0000000e+00 0.0000000e+00 0.0000000e+00 
-6.8003875e-04 0.0000000e+00 8.2881119e-03 
0.0000000e+00 0.0000000e+00 0.0000000e+00 
-6.8003875e-04 0.0000000e+00 8.2881119e-03 
0.0000000e+00 0.0000000e+00 0.0000000e+00 
0.0000000e+00 0.0000000e+00 0.0000000e+00 
-7.3195784e-04 0.0000000e+00 8.9361802e-03 
-7.3195784e-04 0.0000000e+00 8.9361802e-03 
0.0000000e+00 0.0000000e+00 0.0000000e+00 
0.0000000e+00 0.0000000e+00 0.0000000e+00 
-7.8326529e-04 0.0000000e+00 9.5819394e-03 
-7.8326529e-04 0.0000000e+00 9.5819394e-03 
0.0000000e+00 0.0000000e+00 0.0000000e+00 
0.0000000e+00 0.0000000e+00 0.0000000e+00 
-8.3373440e-04 0.0000000e+00 1.0224502e-02 
-8.3373440e-04 0.0000000e+00 1.0224502e-02 
0.0000000e+00 0.0000000e+00 0.0000000e+00 
0.0000000e+00 0.0000000e+00 0.0000000e+00 
-8.8278828e-04 0.0000000e+00 1.0861627e-02 
-8.8278828e-04 0.0000000e+00 1.0861627e-02 
0.0000000e+00 0.0000000e+00 0.0000000e+00 
0.0000000e+00 0.0000000e+00 0.0000000e+00 
-9.3051714e-04 0.0000000e+00 1.1493622e-02 
0.0000000e+00 0.0000000e+00 0.0000000e+00 
-9.3051714e-04 0.0000000e+00 1.1493622e-02 
0.0000000e+00 0.0000000e+00 0.0000000e+00 
-9.7747391e-04 0.0000000e+00 1.2122612e-02 
0.0000000e+00 0.0000000e+00 0.0000000e+00 
-9.7747391e-04 0.0000000e+00 1.2122612e-02 
0.0000000e+00 0.0000000e+00 0.0000000e+00 
-1.0236224e-03 0.0000000e+00 1.2748432e-02 
0.0000000e+00 0.0000000e+00 0.0000000e+00 
-1.0236224e-03 0.0000000e+00 1.2748432e-02 
0.0000000e+00 0.0000000e+00 0.0000000e+00 
0.0000000e+00 0.0000000e+00 0.0000000e+00 
-1.0685206e-03 0.0000000e+00 1.3369310e-02 
0.0000000e+00 0.0000000e+00 0.0000000e+00 
-1.0685206e-03 0.0000000e+00 1.3369310e-02 
0.0000000e+00 0.0000000e+00 0.0000000e+00 
-1.1122913e-03 0.0000000e+00 1.3985702e-02 
0.0000000e+00 0.0000000e+00 0.0000000e+00 
-1.1122913e-03 0.0000000e+00 1.3985702e-02 
0.0000000e+00 0.0000000e+00 0.0000000e+00 
0.0000000e+00 0.0000000e+00 0.0000000e+00 
-1.1554392e-03 0.0000000e+00 1.4599609e-02 
-1.1554392e-03 0.0000000e+00 1.4599609e-02 
0.0000000e+00 0.0000000e+00 0.0000000e+00 
0.0000000e+00 0.0000000e+00 0.0000000e+00 
-1.1979130e-03 0.0000000e+00 1.5210802e-02 
-1.1979130e-03 0.0000000e+00 1.5210802e-02 
0.0000000e+00 0.0000000e+00 0.0000000e+00 
0.0000000e+00 0.0000000e+00 0.0000000e+00 
-1.2392888e-03 0.0000000e+00 1.5817542e-02 
-1.2392888e-03 0.0000000e+00 1.5817542e-02 
0.0000000e+00 0.0000000e+00 0.0000000e+00 
0.0000000e+00 0.0000000e+00 0.0000000e+00 
-1.2796305e-03 0.0000000e+00 1.6420065e-02 
-1.2796305e-03 0.0000000e+00 1.6420065e-02 
0.0000000e+00 0.0000000e+00 0.0000000e+00 
0.0000000e+00 0.0000000e+00 0.0000000e+00 
-1.3193155e-03 0.0000000e+00 1.7019904e-02 
-1.3193155e-03 0.0000000e+00 1.7019904e-02 
0.0000000e+00 0.0000000e+00 0.0000000e+00 
0.0000000e+00 0.0000000e+00 0.0000000e+00 
-1.3582780e-03 0.0000000e+00 1.7616763e-02 
0.0000000e+00 0.0000000e+00 0.0000000e+00 
-1.3582780e-03 0.0000000e+00 1.7616763e-02 
0.0000000e+00 0.0000000e+00 0.0000000e+00 
-7.2740831e-05 0.0000000e+00 9.5421053e-04 
-1.3961545e-03 0.0000000e+00 1.8209111e-02 
-7.2740831e-05 0.0000000e+00 9.5421053e-04 
-1.3961545e-03 0.0000000e+00 1.8209111e-02 
-1.4108710e-04 0.0000000e+00 1.9471889e-03 
-1.4329320e-03 0.0000000e+00 1.8796872e-02 
-1.4108710e-04 0.0000000e+00 1.9471889e-03 
-1.4329320e-03 0.0000000e+00 1.8796872e-02 
-2.0664605e-04 0.0000000e+00 2.9466457e-03 
-2.0664605e-04 0.0000000e+00 2.9466457e-03 
-1.4688181e-03 0.0000000e+00 1.9380889e-02 
-1.4688181e-03 0.0000000e+00 1.9380889e-02 
-2.7018960e-04 0.0000000e+00 3.9396431e-03 
-2.7018960e-04 0.0000000e+00 3.9396431e-03 
-1.5036715e-03 0.0000000e+00 1.9960524e-02 
-1.5036715e-03 0.0000000e+00 1.9960524e-02 
-3.3146741e-04 0.0000000e+00 4.9253266e-03 
-3.3146741e-04 0.0000000e+00 4.9253266e-03 
-1.5371521e-03 0.0000000e+00 2.0534275e-02 
-1.5371521e-03 0.0000000e+00 2.0534275e-02 
-3.9011470e-04 0.0000000e+00 5.9024520e-03 
-3.9011470e-04 0.0000000e+00 5.9024520e-03 
-1.5692088e-03 0.0000000e+00 2.1101867e-02 
-1.5692088e-03 0.0000000e+00 2.1101867e-02 
-4.4593269e-04 0.0000000e+00 6.8702464e-03 
-4.4593269e-04 0.0000000e+00 6.8702464e-03 
-1.5999157e-03 0.0000000e+00 2.1663566e-02 
-1.5999157e-03 0.0000000e+00 2.1663566e-02 
-4.9883208e-04 0.0000000e+00 7.8282843e-03 
-4.9883208e-04 0.0000000e+00 7.8282843e-03 
-1.6291728e-03 0.0000000e+00 2.2218858e-02 
-5.4864551e-04 0.0000000e+00 8.7758330e-03 
-1.6291728e-03 0.0000000e+00 2.2218858e-02 
-5.4864551e-04 0.0000000e+00 8.7758330e-03 
-5.9523174e-04 0.0000000e+00 9.7122261e-03 
-1.6568274e-03 0.0000000e+00 2.2766964e-02 
-5.9523174e-04 0.0000000e+00 9.7122261e-03 
-1.6568274e-03 0.0000000e+00 2.2766964e-02 
-6.3860210e-04 0.0000000e+00 1.0637303e-02 
-1.6827958e-03 0.0000000e+00 2.3307419e-02 
-6.3860210e-04 0.0000000e+00 1.0637303e-02 
-1.6827958e-03 0.0000000e+00 2.3307419e-02 
-6.7881099e-04 0.0000000e+00 1.1551049e-02 
-6.7881099e-04 0.0000000e+00 1.1551049e-02 
-1.7069951e-03 0.0000000e+00 2.3839743e-02 
-1.7069951e-03 0.0000000e+00 2.3839743e-02 
-7.1582361e-04 0.0000000e+00 1.2453133e-02 
-7.1582361e-04 0.0000000e+00 1.2453133e-02 
-1.7293457e-03 0.0000000e+00 2.4363413e-02 
-1.7293457e-03 0.0000000e+00 2.4363413e-02 
-7.4955433e-04 0.0000000e+00 1.3343004e-02 
-7.4955433e-04 0.0000000e+00 1.3343004e-02 
-1.7498009e-03 0.0000000e+00 2.4878038e-02 
-1.7498009e-03 0.0000000e+00 2.4878038e-02 
-7.7997566e-04 0.0000000e+00 1.4220310e-02 
-7.7997566e-04 0.0000000e+00 1.4220310e-02 
-1.7682860e-03 0.0000000e+00 2.5383106e-02 
-1.7682860e-03 0.0000000e+00 2.5383106e-02 
-8.0711306e-04 0.0000000e+00 1.5084873e-02 
-8.0711306e-04 0.0000000e+00 1.5084873e-02 
-1.7846920e-03 0.0000000e+00 2.5877909e-02 
-1.7846920e-03 0.0000000e+00 2.5877909e-02 
-8.3094085e-04 0.0000000e+00 1.5936324e-02 
-8.3094085e-04 0.0000000e+00 1.5936324e-02 
-1.7989706e-03 0.0000000e+00 2.6361969e-02 
-1.7989706e-03 0.0000000e+00 2.6361969e-02 
-8.5139119e-04 0.0000000e+00 1.6774090e-02 
-8.5139119e-04 0.0000000e+00 1.6774090e-02 
-1.8111314e-03 0.0000000e+00 2.6835086e-02 
-1.8111314e-03 0.0000000e+00 2.6835086e-02 
-8.6846523e-04 0.0000000e+00 1.7597836e-02 
-8.6846523e-04 0.0000000e+00 1.7597836e-02 
-1.8211045e-03 0.0000000e+00 2.7296651e-02 
-8.8220859e-04 0.0000000e+00 1.8407405e-02 
-1.8211045e-03 0.0000000e+00 2.7296651e-02 
-8.8220859e-04 0.0000000e+00 1.8407405e-02 
-1.8287627e-03 0.0000000e+00 2.7745696e-02 
-8.9260097e-04 0.0000000e+00 1.9202323e-02 
-1.8287627e-03 0.0000000e+00 2.7745696e-02 
-8.9260097e-04 0.0000000e+00 1.9202323e-02 
-8.9957285e-04 0.0000000e+00 1.9981871e-02 
-1.8341206e-03 0.0000000e+00 2.8181933e-02 
-8.9957285e-04 0.0000000e+00 1.9981871e-02 
-1.8341206e-03 0.0000000e+00 2.8181933e-02 
-9.0315251e-04 0.0000000e+00 2.0745715e-02 
-9.0315251e-04 0.0000000e+00 2.0745715e-02 
-1.8372831e-03 0.0000000e+00 2.8605567e-02 
-1.8372831e-03 0.0000000e+00 2.8605567e-02 
-9.0346774e-04 0.0000000e+00 2.1493986e-02 
-9.0346774e-04 0.0000000e+00 2.1493986e-02 
-1.8382104e-03 0.0000000e+00 2.9016010e-02 
-1.8382104e-03 0.0000000e+00 2.9016010e-02 
-9.0050717e-04 0.0000000e+00 2.2226151e-02 
-9.0050717e-04 0.0000000e+00 2.2226151e-02 
-1.8367741e-03 0.0000000e+00 2.9412072e-02 
-1.8367741e-03 0.0000000e+00 2.9412072e-02 
-8.9412486e-04 0.0000000e+00 2.2940933e-02 
-8.9412486e-04 0.0000000e+00 2.2940933e-02 
-1.8329954e-03 0.0000000e+00 2.9793361e-02 
-1.8329954e-03 0.0000000e+00 2.9793361e-02 
-8.8430190e-04 0.0000000e+00 2.3637577e-02 
-8.8430190e-04 0.0000000e+00 2.3637577e-02 
-1.8270052e-03 0.0000000e+00 3.0160175e-02 
-1.8270052e-03 0.0000000e+00 3.0160175e-02 
-8.7113212e-04 0.0000000e+00 2.4315872e-02 
-8.7113212e-04 0.0000000e+00 2.4315872e-02 
-1.8187794e-03 0.0000000e+00 3.0511812e-02 
-1.8187794e-03 0.0000000e+00 3.0511812e-02 
-8.5459018e-04 0.0000000e+00 2.4974897e-02 
-8.5459018e-04 0.0000000e+00 2.4974897e-02 
-1.8081886e-03 0.0000000e+00 3.0846722e-02 
-1.8081886e-03 0.0000000e+00 3.0846722e-02 
-8.3455411e-04 0.0000000e+00 2.5613007e-02 
-8.3455411e-04 0.0000000e+00 2.5613007e-02 
-1.7952846e-03 0.0000000e+00 3.1164443e-02 
-1.7952846e-03 0.0000000e+00 3.1164443e-02 
-8.1100779e-04 0.0000000e+00 2.6228997e-02 
-8.1100779e-04 0.0000000e+00 2.6228997e-02 
-1.7802373e-03 0.0000000e+00 3.1465384e-02 
-1.7802373e-03 0.0000000e+00 3.1465384e-02 
-7.8403639e-04 0.0000000e+00 2.6822143e-02 
-7.8403639e-04 0.0000000e+00 2.6822143e-02 
-1.7630797e-03 0.0000000e+00 3.1748941e-02 
-1.7630797e-03 0.0000000e+00 3.1748941e-02 
-7.5373898e-04 0.0000000e+00 2.7391709e-02 
-7.5373898e-04 0.0000000e+00 2.7391709e-02 
-1.7437428e-03 0.0000000e+00 3.2013495e-02 
-1.7437428e-03 0.0000000e+00 3.2013495e-02 
-7.2020891e-04 0.0000000e+00 2.7936765e-02 
-7.2020891e-04 0.0000000e+00 2.7936765e-02 
-1.7222901e-03 0.0000000e+00 3.2258320e-02 
-6.8352285e-04 0.0000000e+00 2.8456001e-02 
-1.7222901e-03 0.0000000e+00 3.2258320e-02 
-6.8352285e-04 0.0000000e+00 2.8456001e-02 
-6.4377064e-04 0.0000000e+00 2.8947876e-02 
-1.6989077e-03 0.0000000e+00 3.2483789e-02 
-6.4377064e-04 0.0000000e+00 2.8947876e-02 
-1.6989077e-03 0.0000000e+00 3.2483789e-02 
-6.0122378e-04 0.0000000e+00 2.9412140e-02 
-1.6736885e-03 0.0000000e+00 3.2689391e-02 
-6.0122378e-04 0.0000000e+00 2.9412140e-02 
-1.6736885e-03 0.0000000e+00 3.2689391e-02 
-5.5626435e-04 0.0000000e+00 2.9849750e-02 
-5.5626435e-04 0.0000000e+00 2.9849750e-02 
-1.6466457e-03 0.0000000e+00 3.2873504e-02 
-1.6466457e-03 0.0000000e+00 3.2873504e-02 
-5.0912793e-04 0.0000000e+00 3.0260248e-02 
-5.0912793e-04 0.0000000e+00 3.0260248e-02 
-1.6179061e-03 0.0000000e+00 3.3035371e-02 
-1.6179061e-03 0.0000000e+00 3.3035371e-02 
-4.5998406e-04 0.0000000e+00 3.0641959e-02 
-4.5998406e-04 0.0000000e+00 3.0641959e-02 
-1.5876875e-03 0.0000000e+00 3.3175373e-02 
-1.5876875e-03 0.0000000e+00 3.3175373e-02 
-4.0917803e-04 0.0000000e+00 3.0995354e-02 
-4.0917803e-04 0.0000000e+00 3.0995354e-02 
-1.5561654e-03 0.0000000e+00 3.3293506e-02 
-1.5561654e-03 0.0000000e+00 3.3293506e-02 
-3.5712460e-04 0.0000000e+00 3.1322848e-02 
-3.5712460e-04 0.0000000e+00 3.1322848e-02 
-1.5234851e-03 0.0000000e+00 3.3389130e-02 
-1.5234851e-03 0.0000000e+00 3.3389130e-02 
-3.0408655e-04 0.0000000e+00 3.1624731e-02 
-3.0408655e-04 0.0000000e+00 3.1624731e-02 
-1.4898223e-03 0.0000000e+00 3.3461818e-02 
-1.4898223e-03 0.0000000e+00 3.3461818e-02 
-2.5026891e-04 0.0000000e+00 3.1899249e-02 
-2.5026891e-04 0.0000000e+00 3.1899249e-02 
-1.4553776e-03 0.0000000e+00 3.3511608e-02 
-1.4553776e-03 0.0000000e+00 3.3511608e-02 
-1.9597489e-04 0.0000000e+00 3.2147084e-02 
-1.9597489e-04 0.0000000e+00 3.2147084e-02 
-1.4203475e-03 0.0000000e+00 3.3538722e-02 
-1.4203475e-03 0.0000000e+00 3.3538722e-02 
-1.4149673e-04 0.0000000e+00 3.2371298e-02 
-1.4149673e-04 0.0000000e+00 3.2371298e-02 
-1.3849211e-03 0.0000000e+00 3.3543272e-02 
-1.3849211e-03 0.0000000e+00 3.3543272e-02 
-8.7036820e-05 0.0000000e+00 3.2573166e-02 
-8.7036820e-05 0.0000000e+00 3.2573166e-02 
-1.3492923e-03 0.0000000e+00 3.3525411e-02 
-1.3492923e-03 0.0000000e+00 3.3525411e-02 
-3.2788043e-05 0.0000000e+00 3.2752197e-02 
-3.2788043e-05 0.0000000e+00 3.2752197e-02 
-1.3136502e-03 0.0000000e+00 3.3485528e-02 
-1.3136502e-03 0.0000000e+00 3.3485528e-02 
2.1069705e-05 0.0000000e+00 3.2909151e-02 
2.1069705e-05 0.0000000e+00 3.2909151e-02 
-1.2781645e-03 0.0000000e+00 3.3424192e-02 
-1.2781645e-03 0.0000000e+00 3.3424192e-02 
7.4414660e-05 0.0000000e+00 3.3046109e-02 
7.4414660e-05 0.0000000e+00 3.3046109e-02 
-1.2429907e-03 0.0000000e+00 3.3342023e-02 
-1.2429907e-03 0.0000000e+00 3.3342023e-02 
1.2688146e-04 0.0000000e+00 3.3163587e-02 
1.2688146e-04 0.0000000e+00 3.3163587e-02 
-1.2081699e-03 0.0000000e+00 3.3238913e-02 
-1.2081699e-03 0.0000000e+00 3.3238913e-02 
1.8883175e-04 0.0000000e+00 3.3279502e-02 
1.8883175e-04 0.0000000e+00 3.3279502e-02 
-1.1671929e-03 0.0000000e+00 3.3087923e-02 
-1.1671929e-03 0.0000000e+00 3.3087923e-02 
2.6139189e-04 0.0000000e+00 3.3382482e-02 
2.6139189e-04 0.0000000e+00 3.3382482e-02 
-1.1194788e-03 0.0000000e+00 3.2868945e-02 
-1.1194788e-03 0.0000000e+00 3.2868945e-02 
3.4540809e-04 0.0000000e+00 3.3454931e-02 
3.4540809e-04 0.0000000e+00 3.3454931e-02 
-1.0653147e-03 0.0000000e+00 3.2558132e-02 
-1.0653147e-03 0.0000000e+00 3.2558132e-02 
4.2994866e-04 0.0000000e+00 3.3474998e-02 
4.2994866e-04 0.0000000e+00 3.3474998e-02 
-1.0143772e-03 0.0000000e+00 3.2194631e-02 
-1.0143772e-03 0.0000000e+00 3.2194631e-02 
5.1033940e-04 0.0000000e+00 3.3444211e-02 
5.1033940e-04 0.0000000e+00 3.3444211e-02 
-9.6704542e-04 0.0000000e+00 3.1781320e-02 
-9.6704542e-04 0.0000000e+00 3.1781320e-02 
5.8606796e-04 0.0000000e+00 3.3362595e-02 
5.8606796e-04 0.0000000e+00 3.3362595e-02 
-9.2353694e-04 0.0000000e+00 3.1321647e-02 
-9.2353694e-04 0.0000000e+00 3.1321647e-02 
6.5582668e-04 0.0000000e+00 3.3223107e-02 
6.5582668e-04 0.0000000e+00 3.3223107e-02 
-8.8401322e-04 0.0000000e+00 3.0818603e-02 
-8.8401322e-04 0.0000000e+00 3.0818603e-02 
7.1878476e-04 0.0000000e+00 3.3024647e-02 
7.1878476e-04 0.0000000e+00 3.3024647e-02 
-8.4867174e-04 0.0000000e+00 3.0274266e-02 
-8.4867174e-04 0.0000000e+00 3.0274266e-02 
7.7484010e-04 0.0000000e+00 3.2771627e-02 
7.7484010e-04 0.0000000e+00 3.2771627e-02 
-8.1768374e-04 0.0000000e+00 2.9690315e-02 
-8.1768374e-04 0.0000000e+00 2.9690315e-02 
8.2346531e-04 0.0000000e+00 3.2464456e-02 
8.2346531e-04 0.0000000e+00 3.2464456e-02 
-7.9101617e-04 0.0000000e+00 2.9069773e-02 