# vtk DataFile Version 4.0
vtk output
ASCII
DATASET UNSTRUCTURED_GRID
POINTS 824 float
-6.4148600e-05 1.0000000e-02 -4.4525366e-03 
-1.0680180e-04 1.0000000e-02 -2.8088474e-03 
3.4513260e-04 1.0000000e-02 -6.0450544e-03 
1.3803532e-03 1.0000000e-02 -7.3230534e-03 
6.5829700e-05 1.0000000e-02 -1.1736922e-03 
2.7142144e-03 1.0000000e-02 -8.2851896e-03 
5.0392030e-04 1.0000000e-02 6.5784910e-04 
4.1780764e-03 1.0000000e-02 -9.0342357e-03 
1.1628646e-03 1.0000000e-02 2.4220088e-03 
5.7070961e-03 1.0000000e-02 -9.6390187e-03 
2.0046218e-03 1.0000000e-02 4.1066196e-03 
7.2731595e-03 1.0000000e-02 -1.0140047e-02 
-6.4148600e-05 0.0000000e+00 -4.4525366e-03 
-1.0680180e-04 0.0000000e+00 -2.8088474e-03 
3.4513260e-04 0.0000000e+00 -6.0450544e-03 
1.3803532e-03 0.0000000e+00 -7.3230534e-03 
6.5829700e-05 0.0000000e+00 -1.1736922e-03 
2.9952540e-03 1.0000000e-02 5.7082181e-03 
8.8622628e-03 1.0000000e-02 -1.0562311e-02 
2.7142144e-03 0.0000000e+00 -8.2851896e-03 
5.0392030e-04 0.0000000e+00 6.5784910e-04 
4.1780764e-03 0.0000000e+00 -9.0342357e-03 
1.1628646e-03 0.0000000e+00 2.4220088e-03 
1.0466628e-02 1.0000000e-02 -1.0922252e-02 
4.1067238e-03 1.0000000e-02 7.2284501e-03 
5.7070961e-03 0.0000000e+00 -9.6390187e-03 
2.0046218e-03 0.0000000e+00 4.1066196e-03 
7.2731595e-03 0.0000000e+00 -1.0140047e-02 
1.2081579e-02 1.0000000e-02 -1.1231240e-02 
5.3166988e-03 1.0000000e-02 8.6715129e-03 
2.9952540e-03 0.0000000e+00 5.7082181e-03 
8.8622628e-03 0.0000000e+00 -1.0562311e-02 
1.3704120e-02 1.0000000e-02 -1.1497501e-02 
1.0466628e-02 0.0000000e+00 -1.0922252e-02 
4.1067238e-03 0.0000000e+00 7.2284501e-03 
6.6076374e-03 1.0000000e-02 1.0042624e-02 
1.5332244e-02 1.0000000e-02 -1.1727173e-02 
1.2081579e-02 0.0000000e+00 -1.1231240e-02 
5.3166988e-03 0.0000000e+00 8.6715129e-03 
7.9658343e-03 1.0000000e-02 1.1347144e-02 
1.3704120e-02 0.0000000e+00 -1.1497501e-02 
1.6964543e-02 1.0000000e-02 -1.1925002e-02 
6.6076374e-03 0.0000000e+00 1.0042624e-02 
9.3804686e-03 1.0000000e-02 1.2590236e-02 
1.5332244e-02 0.0000000e+00 -1.1727173e-02 
1.8600004e-02 1.0000000e-02 -1.2094716e-02 
7.9658343e-03 0.0000000e+00 1.1347144e-02 
1.6964543e-02 0.0000000e+00 -1.1925002e-02 
1.0843002e-02 1.0000000e-02 1.3776601e-02 
2.0237876e-02 1.0000000e-02 -1.2239318e-02 
9.3804686e-03 0.0000000e+00 1.2590236e-02 
1.8600004e-02 0.0000000e+00 -1.2094716e-02 
1.2346566e-02 1.0000000e-02 1.4910517e-02 
2.1877591e-02 1.0000000e-02 -1.2361246e-02 
1.0843002e-02 0.0000000e+00 1.3776601e-02 
2.0237876e-02 0.0000000e+00 -1.2239318e-02 
1.3885623e-02 1.0000000e-02 1.5995768e-02 
2.3518711e-02 1.0000000e-02 -1.2462540e-02 
1.2346566e-02 0.0000000e+00 1.4910517e-02 
2.1877591e-02 0.0000000e+00 -1.2361246e-02 
2.5160890e-02 1.0000000e-02 -1.2544903e-02 
1.5455654e-02 1.0000000e-02 1.7035707e-02 
1.3885623e-02 0.0000000e+00 1.5995768e-02 
2.3518711e-02 0.0000000e+00 -1.2462540e-02 
2.6803852e-02 1.0000000e-02 -1.2609772e-02 
1.7052912e-02 1.0000000e-02 1.8033321e-02 
2.5160890e-02 0.0000000e+00 -1.2544903e-02 
1.5455654e-02 0.0000000e+00 1.7035707e-02 
2.8447376e-02 1.0000000e-02 -1.2658389e-02 
2.6803852e-02 0.0000000e+00 -1.2609772e-02 
1.7052912e-02 0.0000000e+00 1.8033321e-02 
1.8674284e-02 1.0000000e-02 1.8991246e-02 
3.0091279e-02 1.0000000e-02 -1.2691814e-02 
2.8447376e-02 0.0000000e+00 -1.2658389e-02 
1.8674284e-02 0.0000000e+00 1.8991246e-02 
2.0317149e-02 1.0000000e-02 1.9911822e-02 
3.0091279e-02 0.0000000e+00 -1.2691814e-02 
3.1735410e-02 1.0000000e-02 -1.2710971e-02 
2.0317149e-02 0.0000000e+00 1.9911822e-02 
2.1979295e-02 1.0000000e-02 2.0797113e-02 
3.1735410e-02 0.0000000e+00 -1.2710971e-02 
3.3379643e-02 1.0000000e-02 -1.2716676e-02 
2.1979295e-02 0.0000000e+00 2.0797113e-02 
2.3658832e-02 1.0000000e-02 2.1648949e-02 
3.3379643e-02 0.0000000e+00 -1.2716676e-02 
3.5023871e-02 1.0000000e-02 -1.2709629e-02 
2.3658832e-02 0.0000000e+00 2.1648949e-02 
2.5354100e-02 1.0000000e-02 2.2469029e-02 
3.5023871e-02 0.0000000e+00 -1.2709629e-02 
3.6668001e-02 1.0000000e-02 -1.2690457e-02 
2.5354100e-02 0.0000000e+00 2.2469029e-02 
2.7063712e-02 1.0000000e-02 2.3258772e-02 
3.6668001e-02 0.0000000e+00 -1.2690457e-02 
3.8312016e-02 1.0000000e-02 -1.2663038e-02 
2.7063712e-02 0.0000000e+00 2.3258772e-02 
3.8312016e-02 0.0000000e+00 -1.2663038e-02 
2.8786417e-02 1.0000000e-02 2.4019532e-02 
3.9956032e-02 1.0000000e-02 -1.2635752e-02 
2.8786417e-02 0.0000000e+00 2.4019532e-02 
3.9956032e-02 0.0000000e+00 -1.2635752e-02 
3.0521135e-02 1.0000000e-02 2.4752486e-02 
4.1600048e-02 1.0000000e-02 -1.2608467e-02 
3.0521135e-02 0.0000000e+00 2.4752486e-02 
4.1600048e-02 0.0000000e+00 -1.2608467e-02 
3.2266919e-02 1.0000000e-02 2.5458676e-02 
4.3299814e-02 1.0000000e-02 -1.2580255e-02 
3.2266919e-02 0.0000000e+00 2.5458676e-02 
4.3299814e-02 0.0000000e+00 -1.2580255e-02 
3.4022902e-02 1.0000000e-02 2.6139111e-02 
4.5339533e-02 1.0000000e-02 -1.2546402e-02 
3.4022902e-02 0.0000000e+00 2.6139111e-02 
4.5339533e-02 0.0000000e+00 -1.2546402e-02 
3.5788340e-02 1.0000000e-02 2.6794623e-02 
4.7787196e-02 1.0000000e-02 -1.2505778e-02 
3.5788340e-02 0.0000000e+00 2.6794623e-02 
3.7562554e-02 1.0000000e-02 2.7425996e-02 
4.7787196e-02 0.0000000e+00 -1.2505778e-02 
3.7562554e-02 0.0000000e+00 2.7425996e-02 
3.9344928e-02 1.0000000e-02 2.8033950e-02 
5.0379113e-02 1.0000000e-02 -1.2462760e-02 
3.9344928e-02 0.0000000e+00 2.8033950e-02 
5.0379113e-02 0.0000000e+00 -1.2462760e-02 
4.1134916e-02 1.0000000e-02 2.8619109e-02 
5.2971029e-02 1.0000000e-02 -1.2419741e-02 
4.1134916e-02 0.0000000e+00 2.8619109e-02 
5.2971029e-02 0.0000000e+00 -1.2419741e-02 
4.2932026e-02 1.0000000e-02 2.9182016e-02 
4.2932026e-02 0.0000000e+00 2.9182016e-02 
5.5562946e-02 1.0000000e-02 -1.2376723e-02 
4.5339682e-02 1.0000000e-02 2.9899231e-02 
5.5562946e-02 0.0000000e+00 -1.2376723e-02 
4.5339682e-02 0.0000000e+00 2.9899231e-02 
5.8154863e-02 1.0000000e-02 -1.2333705e-02 
4.7758221e-02 1.0000000e-02 3.0578844e-02 
5.8154863e-02 0.0000000e+00 -1.2333705e-02 
4.7758221e-02 0.0000000e+00 3.0578844e-02 
6.0746779e-02 1.0000000e-02 -1.2290686e-02 
5.0186760e-02 1.0000000e-02 3.1221807e-02 
6.0746779e-02 0.0000000e+00 -1.2290686e-02 
5.0186760e-02 0.0000000e+00 3.1221807e-02 
6.3338696e-02 1.0000000e-02 -1.2247668e-02 
5.2624513e-02 1.0000000e-02 3.1828903e-02 
6.3338696e-02 0.0000000e+00 -1.2247668e-02 
5.2624513e-02 0.0000000e+00 3.1828903e-02 
5.5070762e-02 1.0000000e-02 3.2400804e-02 
6.5930613e-02 1.0000000e-02 -1.2204650e-02 
5.5070762e-02 0.0000000e+00 3.2400804e-02 
6.5930613e-02 0.0000000e+00 -1.2204650e-02 
5.7524847e-02 1.0000000e-02 3.2938082e-02 
6.8522529e-02 1.0000000e-02 -1.2161631e-02 
5.7524847e-02 0.0000000e+00 3.2938082e-02 
6.8522529e-02 0.0000000e+00 -1.2161631e-02 
5.9986169e-02 1.0000000e-02 3.3441170e-02 
7.1114446e-02 1.0000000e-02 -1.2118613e-02 
5.9986169e-02 0.0000000e+00 3.3441170e-02 
7.1114446e-02 0.0000000e+00 -1.2118613e-02 
6.2454163e-02 1.0000000e-02 3.3910436e-02 
6.2454163e-02 0.0000000e+00 3.3910436e-02 
7.3706362e-02 1.0000000e-02 -1.2075595e-02 
7.3706362e-02 0.0000000e+00 -1.2075595e-02 
6.4928303e-02 1.0000000e-02 3.4346139e-02 
6.4928303e-02 0.0000000e+00 3.4346139e-02 
7.6298279e-02 1.0000000e-02 -1.2032577e-02 
7.6298279e-02 0.0000000e+00 -1.2032577e-02 
6.7408092e-02 1.0000000e-02 3.4748446e-02 
6.7408092e-02 0.0000000e+00 3.4748446e-02 
7.8890196e-02 1.0000000e-02 -1.1989558e-02 
7.8890196e-02 0.0000000e+00 -1.1989558e-02 
6.9893057e-02 1.0000000e-02 3.5117436e-02 
6.9893057e-02 0.0000000e+00 3.5117436e-02 
8.1482112e-02 1.0000000e-02 -1.1946540e-02 
8.1482112e-02 0.0000000e+00 -1.1946540e-02 
7.2382742e-02 1.0000000e-02 3.5453098e-02 
7.2382742e-02 0.0000000e+00 3.5453098e-02 
8.4074029e-02 1.0000000e-02 -1.1903522e-02 
7.4876707e-02 1.0000000e-02 3.5755332e-02 
8.4074029e-02 0.0000000e+00 -1.1903522e-02 
7.4876707e-02 0.0000000e+00 3.5755332e-02 
8.6665946e-02 1.0000000e-02 -1.1860503e-02 
7.7374516e-02 1.0000000e-02 3.6023948e-02 
8.6665946e-02 0.0000000e+00 -1.1860503e-02 
7.7374516e-02 0.0000000e+00 3.6023948e-02 
8.9257862e-02 1.0000000e-02 -1.1817485e-02 
7.9875738e-02 1.0000000e-02 3.6258665e-02 
8.9257862e-02 0.0000000e+00 -1.1817485e-02 
7.9875738e-02 0.0000000e+00 3.6258665e-02 
8.2379940e-02 1.0000000e-02 3.6459105e-02 
9.1849779e-02 1.0000000e-02 -1.1774467e-02 
8.2379940e-02 0.0000000e+00 3.6459105e-02 
9.1849779e-02 0.0000000e+00 -1.1774467e-02 
8.4886681e-02 1.0000000e-02 3.6624786e-02 
9.4441696e-02 1.0000000e-02 -1.1731448e-02 
8.4886681e-02 0.0000000e+00 3.6624786e-02 
9.4441696e-02 0.0000000e+00 -1.1731448e-02 
8.7395510e-02 1.0000000e-02 3.6755108e-02 
8.7395510e-02 0.0000000e+00 3.6755108e-02 
9.7033612e-02 1.0000000e-02 -1.1688430e-02 
9.7033612e-02 0.0000000e+00 -1.1688430e-02 
8.9905951e-02 1.0000000e-02 3.6849401e-02 
8.9905951e-02 0.0000000e+00 3.6849401e-02 
9.9625529e-02 1.0000000e-02 -1.1645412e-02 
9.9625529e-02 0.0000000e+00 -1.1645412e-02 
9.2417505e-02 1.0000000e-02 3.6906832e-02 
9.2417505e-02 0.0000000e+00 3.6906832e-02 
1.0221745e-01 1.0000000e-02 -1.1602393e-02 
1.0221745e-01 0.0000000e+00 -1.1602393e-02 
9.4929640e-02 1.0000000e-02 3.6926425e-02 
9.4929640e-02 0.0000000e+00 3.6926425e-02 
1.0480936e-01 1.0000000e-02 -1.1559375e-02 
1.0480936e-01 0.0000000e+00 -1.1559375e-02 
9.7441776e-02 1.0000000e-02 3.6907077e-02 
9.7441776e-02 0.0000000e+00 3.6907077e-02 
1.0740128e-01 1.0000000e-02 -1.1516357e-02 
1.0740128e-01 0.0000000e+00 -1.1516357e-02 
9.9953281e-02 1.0000000e-02 3.6847529e-02 
9.9953281e-02 0.0000000e+00 3.6847529e-02 
1.0999320e-01 1.0000000e-02 -1.1473339e-02 
1.0246345e-01 1.0000000e-02 3.6746314e-02 
1.0999320e-01 0.0000000e+00 -1.1473339e-02 
1.0246345e-01 0.0000000e+00 3.6746314e-02 
1.0497150e-01 1.0000000e-02 3.6601738e-02 
1.1258511e-01 1.0000000e-02 -1.1430320e-02 
1.0497150e-01 0.0000000e+00 3.6601738e-02 
1.1258511e-01 0.0000000e+00 -1.1430320e-02 
1.0747666e-01 1.0000000e-02 3.6413638e-02 
1.1517703e-01 1.0000000e-02 -1.1387302e-02 
1.0747666e-01 0.0000000e+00 3.6413638e-02 
[...]
POINT_DATA 824
FIELD FieldData 2
DISPLACEMENT 3 824  float
0.0000000e+00 0.0000000e+00 0.0000000e+00 
0.0000000e+00 0.0000000e+00 0.0000000e+00 
0.0000000e+00 0.0000000e+00 0.0000000e+00 
0.0000000e+00 0.0000000e+00 0.0000000e+00 
0.0000000e+00 0.0000000e+00 0.0000000e+00 
0.0000000e+00 0.0000000e+00 0.0000000e+00 
0.0000000e+00 0.0000000e+00 0.0000000e+00 
0.0000000e+00 0.0000000e+00 0.0000000e+00 
0.0000000e+00 0.0000000e+00 0.0000000e+00 
0.0000000e+00 0.0000000e+00 0.0000000e+00 
0.0000000e+00 0.0000000e+00 0.0000000e+00 
0.0000000e+00 0.0000000e+00 0.0000000e+00 
0.0000000e+00 0.0000000e+00 0.0000000e+00 
0.0000000e+00 0.0000000e+00 0.0000000e+00 
0.0000000e+00 0.0000000e+00 0.0000000e+00 
0.0000000e+00 0.0000000e+00 0.0000000e+00 
0.0000000e+00 0.0000000e+00 0.0000000e+00 
0.0000000e+00 0.0000000e+00 0.0000000e+00 
0.0000000e+00 0.0000000e+00 0.0000000e+00 
0.0000000e+00 0.0000000e+00 0.0000000e+00 
0.0000000e+00 0.0000000e+00 0.0000000e+00 
0.0000000e+00 0.0000000e+00 0.0000000e+00 
0.0000000e+00 0.0000000e+00 0.0000000e+00 
0.0000000e+00 0.0000000e+00 0.0000000e+00 
0.0000000e+00 0.0000000e+00 0.0000000e+00 
0.0000000e+00 0.0000000e+00 0.0000000e+00 
0.0000000e+00 0.0000000e+00 0.0000000e+00 
0.0000000e+00 0.0000000e+00 0.0000000e+00 
0.0000000e+00 0.0000000e+00 0.0000000e+00 
0.0000000e+00 0.0000000e+00 0.0000000e+00 
0.0000000e+00 0.0000000e+00 0.0000000e+00 
0.0000000e+00 0.0000000e+00 0.0000000e+00 
0.0000000e+00 0.0000000e+00 0.0000000e+00 
0.0000000e+00 0.0000000e+00 0.0000000e+00 
0.0000000e+00 0.0000000e+00 0.0000000e+00 
0.0000000e+00 0.0000000e+00 0.0000000e+00 
0.0000000e+00 0.0000000e+00 0.0000000e+00 
0.0000000e+00 0.0000000e+00 0.0000000e+00 
0.0000000e+00 0.0000000e+00 0.0000000e+00 
0.0000000e+00 0.0000000e+00 0.0000000e+00 
0.0000000e+00 0.0000000e+00 0.0000000e+00 
0.0000000e+00 0.0000000e+00 0.0000000e+00 
0.0000000e+00 0.0000000e+00 0.0000000e+00 
0.0000000e+00 0.0000000e+00 0.0000000e+00 
0.0000000e+00 0.0000000e+00 0.0000000e+00 
0.0000000e+00 0.0000000e+00 0.0000000e+00 
0.0000000e+00 0.0000000e+00 0.0000000e+00 
0.0000000e+00 0.0000000e+00 0.0000000e+00 
0.0000000e+00 0.0000000e+00 0.0000000e+00 
0.0000000e+00 0.0000000e+00 0.0000000e+00 
0.0000000e+00 0.0000000e+00 0.0000000e+00 
0.0000000e+00 0.0000000e+00 0.0000000e+00 
0.0000000e+00 0.0000000e+00 0.0000000e+00 
0.0000000e+00 0.0000000e+00 0.0000000e+00 
0.0000000e+00 0.0000000e+00 0.0000000e+00 
0.0000000e+00 0.0000000e+00 0.0000000e+00 
0.0000000e+00 0.0000000e+00 0.0000000e+00 
0.0000000e+00 0.0000000e+00 0.0000000e+00 
0.0000000e+00 0.0000000e+00 0.0000000e+00 
0.0000000e+00 0.0000000e+00 0.0000000e+00 
0.0000000e+00 0.0000000e+00 0.0000000e+00 
0.0000000e+00 0.0000000e+00 0.0000000e+00 
0.0000000e+00 0.0000000e+00 0.0000000e+00 
0.0000000e+00 0.0000000e+00 0.0000000e+00 
0.0000000e+00 0.0000000e+00 0.0000000e+00 
0.0000000e+00 0.0000000e+00 0.0000000e+00 
0.0000000e+00 0.0000000e+00 0.0000000e+00 
0.0000000e+00 0.0000000e+00 0.0000000e+00 
0.0000000e+00 0.0000000e+00 0.0000000e+00 
0.0000000e+00 0.0000000e+00 0.0000000e+00 
0.0000000e+00 0.0000000e+00 0.0000000e+00 
0.0000000e+00 0.0000000e+00 0.0000000e+00 
0.0000000e+00 0.0000000e+00 0.0000000e+00 
0.0000000e+00 0.0000000e+00 0.0000000e+00 
0.0000000e+00 0.0000000e+00 0.0000000e+00 
0.0000000e+00 0.0000000e+00 0.0000000e+00 
0.0000000e+00 0.0000000e+00 0.0000000e+00 
0.0000000e+00 0.0000000e+00 0.0000000e+00 
0.0000000e+00 0.0000000e+00 0.0000000e+00 
0.0000000e+00 0.0000000e+00 0.0000000e+00 
0.0000000e+00 0.0000000e+00 0.0000000e+00 
0.0000000e+00 0.0000000e+00 0.0000000e+00 
0.0000000e+00 0.0000000e+00 0.0000000e+00 
0.0000000e+00 0.0000000e+00 0.0000000e+00 
0.0000000e+00 0.0000000e+00 0.0000000e+00 
0.0000000e+00 0.0000000e+00 0.0000000e+00 
0.0000000e+00 0.0000000e+00 0.0000000e+00 
0.0000000e+00 0.0000000e+00 0.0000000e+00 
0.0000000e+00 0.0000000e+00 0.0000000e+00 
0.0000000e+00 0.0000000e+00 0.0000000e+00 
0.0000000e+00 0.0000000e+00 0.0000000e+00 
0.0000000e+00 0.0000000e+00 0.0000000e+00 
0.0000000e+00 0.0000000e+00 0.0000000e+00 
0.0000000e+00 0.0000000e+00 0.0000000e+00 
0.0000000e+00 0.0000000e+00 0.0000000e+00 
0.0000000e+00 0.0000000e+00 0.0000000e+00 
0.0000000e+00 0.0000000e+00 0.0000000e+00 
-7.5400775e-06 0.0000000e+00 1.5443370e-04 
0.0000000e+00 0.0000000e+00 0.0000000e+00 
-7.5400775e-06 0.0000000e+00 1.5443370e-04 
0.0000000e+00 0.0000000e+00 0.0000000e+00 
-1.4995071e-05 0.0000000e+00 3.0808428e-04 
0.0000000e+00 0.0000000e+00 0.0000000e+00 
-1.4995071e-05 0.0000000e+00 3.0808428e-04 
0.0000000e+00 0.0000000e+00 0.0000000e+00 
-2.2610081e-05 0.0000000e+00 4.6608709e-04 
0.0000000e+00 0.0000000e+00 0.0000000e+00 
-2.2610081e-05 0.0000000e+00 4.6608709e-04 
0.0000000e+00 0.0000000e+00 0.0000000e+00 
-3.1618963e-05 0.0000000e+00 6.5449618e-04 
0.0000000e+00 0.0000000e+00 0.0000000e+00 
-3.1618963e-05 0.0000000e+00 6.5449618e-04 
0.0000000e+00 0.0000000e+00 0.0000000e+00 
-4.2237130e-05 0.0000000e+00 8.7880041e-04 
0.0000000e+00 0.0000000e+00 0.0000000e+00 
0.0000000e+00 0.0000000e+00 0.0000000e+00 
-4.2237130e-05 0.0000000e+00 8.7880041e-04 
0.0000000e+00 0.0000000e+00 0.0000000e+00 
0.0000000e+00 0.0000000e+00 0.0000000e+00 
-5.3245018e-05 0.0000000e+00 1.1141248e-03 
0.0000000e+00 0.0000000e+00 0.0000000e+00 
-5.3245018e-05 0.0000000e+00 1.1141248e-03 
0.0000000e+00 0.0000000e+00 0.0000000e+00 
-6.4004608e-05 0.0000000e+00 1.3471205e-03 
0.0000000e+00 0.0000000e+00 0.0000000e+00 
-6.4004608e-05 0.0000000e+00 1.3471205e-03 
0.0000000e+00 0.0000000e+00 0.0000000e+00 
0.0000000e+00 0.0000000e+00 0.0000000e+00 
-7.4509239e-05 0.0000000e+00 1.5777105e-03 
0.0000000e+00 0.0000000e+00 0.0000000e+00 
-7.4509239e-05 0.0000000e+00 1.5777105e-03 
0.0000000e+00 0.0000000e+00 0.0000000e+00 
-8.4744662e-05 0.0000000e+00 1.8057276e-03 
0.0000000e+00 0.0000000e+00 0.0000000e+00 
-8.4744662e-05 0.0000000e+00 1.8057276e-03 
0.0000000e+00 0.0000000e+00 0.0000000e+00 
-9.4701520e-05 0.0000000e+00 2.0310472e-03 
0.0000000e+00 0.0000000e+00 0.0000000e+00 
-9.4701520e-05 0.0000000e+00 2.0310472e-03 
0.0000000e+00 0.0000000e+00 0.0000000e+00 
-1.0438401e-04 0.0000000e+00 2.2536881e-03 
0.0000000e+00 0.0000000e+00 0.0000000e+00 
-1.0438401e-04 0.0000000e+00 2.2536881e-03 
0.0000000e+00 0.0000000e+00 0.0000000e+00 
0.0000000e+00 0.0000000e+00 0.0000000e+00 
-1.1379183e-04 0.0000000e+00 2.4736224e-03 
0.0000000e+00 0.0000000e+00 0.0000000e+00 
-1.1379183e-04 0.0000000e+00 2.4736224e-03 
0.0000000e+00 0.0000000e+00 0.0000000e+00 
-1.2291218e-04 0.0000000e+00 2.6906839e-03 
0.0000000e+00 0.0000000e+00 0.0000000e+00 
-1.2291218e-04 0.0000000e+00 2.6906839e-03 
0.0000000e+00 0.0000000e+00 0.0000000e+00 
-1.3173536e-04 0.0000000e+00 2.9047360e-03 
0.0000000e+00 0.0000000e+00 0.0000000e+00 
-1.3173536e-04 0.0000000e+00 2.9047360e-03 
0.0000000e+00 0.0000000e+00 0.0000000e+00 
0.0000000e+00 0.0000000e+00 0.0000000e+00 
-1.4026823e-04 0.0000000e+00 3.1158169e-03 
-1.4026823e-04 0.0000000e+00 3.1158169e-03 
0.0000000e+00 0.0000000e+00 0.0000000e+00 
0.0000000e+00 0.0000000e+00 0.0000000e+00 
-1.4852133e-04 0.0000000e+00 3.3240061e-03 
-1.4852133e-04 0.0000000e+00 3.3240061e-03 
0.0000000e+00 0.0000000e+00 0.0000000e+00 
0.0000000e+00 0.0000000e+00 0.0000000e+00 
-1.5649144e-04 0.0000000e+00 3.5292263e-03 
-1.5649144e-04 0.0000000e+00 3.5292263e-03 
0.0000000e+00 0.0000000e+00 0.0000000e+00 
0.0000000e+00 0.0000000e+00 0.0000000e+00 
-1.6417169e-04 0.0000000e+00 3.7313613e-03 
-1.6417169e-04 0.0000000e+00 3.7313613e-03 
0.0000000e+00 0.0000000e+00 0.0000000e+00 
0.0000000e+00 0.0000000e+00 0.0000000e+00 
-1.7157399e-04 0.0000000e+00 3.9305059e-03 
0.0000000e+00 0.0000000e+00 0.0000000e+00 
-1.7157399e-04 0.0000000e+00 3.9305059e-03 
0.0000000e+00 0.0000000e+00 0.0000000e+00 
-1.7871897e-04 0.0000000e+00 4.1268540e-03 
0.0000000e+00 0.0000000e+00 0.0000000e+00 
-1.7871897e-04 0.0000000e+00 4.1268540e-03 
0.0000000e+00 0.0000000e+00 0.0000000e+00 
-1.8560797e-04 0.0000000e+00 4.3203794e-03 
0.0000000e+00 0.0000000e+00 0.0000000e+00 
-1.8560797e-04 0.0000000e+00 4.3203794e-03 
0.0000000e+00 0.0000000e+00 0.0000000e+00 
0.0000000e+00 0.0000000e+00 0.0000000e+00 
-1.9223253e-04 0.0000000e+00 4.5109436e-03 
0.0000000e+00 0.0000000e+00 0.0000000e+00 
-1.9223253e-04 0.0000000e+00 4.5109436e-03 
0.0000000e+00 0.0000000e+00 0.0000000e+00 
-1.9860276e-04 0.0000000e+00 4.6986298e-03 
0.0000000e+00 0.0000000e+00 0.0000000e+00 
-1.9860276e-04 0.0000000e+00 4.6986298e-03 
0.0000000e+00 0.0000000e+00 0.0000000e+00 
0.0000000e+00 0.0000000e+00 0.0000000e+00 
-2.0473927e-04 0.0000000e+00 4.8836475e-03 
-2.0473927e-04 0.0000000e+00 4.8836475e-03 
0.0000000e+00 0.0000000e+00 0.0000000e+00 
0.0000000e+00 0.0000000e+00 0.0000000e+00 
-2.1064508e-04 0.0000000e+00 5.0659917e-03 
-2.1064508e-04 0.0000000e+00 5.0659917e-03 
0.0000000e+00 0.0000000e+00 0.0000000e+00 
0.0000000e+00 0.0000000e+00 0.0000000e+00 
-2.1631268e-04 0.0000000e+00 5.2455339e-03 
-2.1631268e-04 0.0000000e+00 5.2455339e-03 
0.0000000e+00 0.0000000e+00 0.0000000e+00 
0.0000000e+00 0.0000000e+00 0.0000000e+00 
-2.2174935e-04 0.0000000e+00 5.4223331e-03 
-2.2174935e-04 0.0000000e+00 5.4223331e-03 
0.0000000e+00 0.0000000e+00 0.0000000e+00 
0.0000000e+00 0.0000000e+00 0.0000000e+00 
-2.2696982e-04 0.0000000e+00 5.5965403e-03 
-2.2696982e-04 0.0000000e+00 5.5965403e-03 
0.0000000e+00 0.0000000e+00 0.0000000e+00 
0.0000000e+00 0.0000000e+00 0.0000000e+00 
-2.3197385e-04 0.0000000e+00 5.7681120e-03 
0.0000000e+00 0.0000000e+00 0.0000000e+00 
-2.3197385e-04 0.0000000e+00 5.7681120e-03 
0.0000000e+00 0.0000000e+00 0.0000000e+00 
1.5793477e-06 0.0000000e+00 3.6363381e-04 
-2.3675402e-04 0.0000000e+00 5.9369133e-03 
1.5793477e-06 0.0000000e+00 3.6363381e-04 
-2.3675402e-04 0.0000000e+00 5.9369133e-03 
6.6578182e-06 0.0000000e+00 7.6331759e-04 
-2.4131567e-04 0.0000000e+00 6.1029842e-03 
6.6578182e-06 0.0000000e+00 7.6331759e-04 
-2.4131567e-04 0.0000000e+00 6.1029842e-03 
1.3287836e-05 0.0000000e+00 1.1676933e-03 
1.3287836e-05 0.0000000e+00 1.1676933e-03 
-2.4566901e-04 0.0000000e+00 6.2664238e-03 
-2.4566901e-04 0.0000000e+00 6.2664238e-03 
2.0480930e-05 0.0000000e+00 1.5646144e-03 
2.0480930e-05 0.0000000e+00 1.5646144e-03 
-2.4981119e-04 0.0000000e+00 6.4271522e-03 
-2.4981119e-04 0.0000000e+00 6.4271522e-03 
2.8213830e-05 0.0000000e+00 1.9541576e-03 
2.8213830e-05 0.0000000e+00 1.9541576e-03 
-2.5373429e-04 0.0000000e+00 6.5850245e-03 
-2.5373429e-04 0.0000000e+00 6.5850245e-03 
3.6482656e-05 0.0000000e+00 2.3361285e-03 
3.6482656e-05 0.0000000e+00 2.3361285e-03 
-2.5743873e-04 0.0000000e+00 6.7400094e-03 
-2.5743873e-04 0.0000000e+00 6.7400094e-03 
4.5275069e-05 0.0000000e+00 2.7103797e-03 
4.5275069e-05 0.0000000e+00 2.7103797e-03 
-2.6092645e-04 0.0000000e+00 6.8920949e-03 
-2.6092645e-04 0.0000000e+00 6.8920949e-03 
5.4569598e-05 0.0000000e+00 3.0768909e-03 
5.4569598e-05 0.0000000e+00 3.0768909e-03 
-2.6419383e-04 0.0000000e+00 7.0411808e-03 
6.4345931e-05 0.0000000e+00 3.4355791e-03 
-2.6419383e-04 0.0000000e+00 7.0411808e-03 
6.4345931e-05 0.0000000e+00 3.4355791e-03 
7.4583950e-05 0.0000000e+00 3.7863523e-03 
-2.6723670e-04 0.0000000e+00 7.1871501e-03 
7.4583950e-05 0.0000000e+00 3.7863523e-03 
-2.6723670e-04 0.0000000e+00 7.1871501e-03 
8.5259522e-05 0.0000000e+00 4.1291927e-03 
-2.7005390e-04 0.0000000e+00 7.3299387e-03 
8.5259522e-05 0.0000000e+00 4.1291927e-03 
-2.7005390e-04 0.0000000e+00 7.3299387e-03 
9.6348690e-05 0.0000000e+00 4.4640830e-03 
9.6348690e-05 0.0000000e+00 4.4640830e-03 
-2.7264351e-04 0.0000000e+00 7.4694685e-03 
-2.7264351e-04 0.0000000e+00 7.4694685e-03 
1.0782770e-04 0.0000000e+00 4.7910008e-03 
1.0782770e-04 0.0000000e+00 4.7910008e-03 
-2.7500242e-04 0.0000000e+00 7.6056277e-03 
-2.7500242e-04 0.0000000e+00 7.6056277e-03 
1.1967124e-04 0.0000000e+00 5.1099452e-03 
1.1967124e-04 0.0000000e+00 5.1099452e-03 
-2.7712939e-04 0.0000000e+00 7.7383230e-03 
-2.7712939e-04 0.0000000e+00 7.7383230e-03 
1.3185609e-04 0.0000000e+00 5.4208764e-03 
1.3185609e-04 0.0000000e+00 5.4208764e-03 
-2.7902498e-04 0.0000000e+00 7.8674985e-03 
-2.7902498e-04 0.0000000e+00 7.8674985e-03 
1.4436076e-04 0.0000000e+00 5.7236859e-03 
1.4436076e-04 0.0000000e+00 5.7236859e-03 
-2.8068913e-04 0.0000000e+00 7.9930849e-03 
-2.8068913e-04 0.0000000e+00 7.9930849e-03 
1.5715961e-04 0.0000000e+00 6.0183570e-03 
1.5715961e-04 0.0000000e+00 6.0183570e-03 
-2.8212169e-04 0.0000000e+00 8.1149919e-03 
-2.8212169e-04 0.0000000e+00 8.1149919e-03 
1.7022333e-04 0.0000000e+00 6.3049716e-03 
1.7022333e-04 0.0000000e+00 6.3049716e-03 
-2.8332444e-04 0.0000000e+00 8.2331547e-03 
-2.8332444e-04 0.0000000e+00 8.2331547e-03 
1.8352622e-04 0.0000000e+00 6.5835392e-03 
1.8352622e-04 0.0000000e+00 6.5835392e-03 
-2.8430037e-04 0.0000000e+00 8.3475399e-03 
1.9704470e-04 0.0000000e+00 6.8539914e-03 
-2.8430037e-04 0.0000000e+00 8.3475399e-03 
1.9704470e-04 0.0000000e+00 6.8539914e-03 
-2.8505231e-04 0.0000000e+00 8.4581066e-03 
2.1075075e-04 0.0000000e+00 7.1164116e-03 
-2.8505231e-04 0.0000000e+00 8.4581066e-03 
2.1075075e-04 0.0000000e+00 7.1164116e-03 
2.2461468e-04 0.0000000e+00 7.3710370e-03 
-2.8558310e-04 0.0000000e+00 8.5648018e-03 
2.2461468e-04 0.0000000e+00 7.3710370e-03 
-2.8558310e-04 0.0000000e+00 8.5648018e-03 
2.3861180e-04 0.0000000e+00 7.6179127e-03 
2.3861180e-04 0.0000000e+00 7.6179127e-03 
-2.8589629e-04 0.0000000e+00 8.6675787e-03 
-2.8589629e-04 0.0000000e+00 8.6675787e-03 
2.5272029e-04 0.0000000e+00 7.8569273e-03 
2.5272029e-04 0.0000000e+00 7.8569273e-03 
-2.8599568e-04 0.0000000e+00 8.7664051e-03 
-2.8599568e-04 0.0000000e+00 8.7664051e-03 
2.6691438e-04 0.0000000e+00 8.0882030e-03 
2.6691438e-04 0.0000000e+00 8.0882030e-03 
-2.8588533e-04 0.0000000e+00 8.8612500e-03 
-2.8588533e-04 0.0000000e+00 8.8612500e-03 
2.8116858e-04 0.0000000e+00 8.3120482e-03 
2.8116858e-04 0.0000000e+00 8.3120482e-03 
-2.8556981e-04 0.0000000e+00 8.9520753e-03 
-2.8556981e-04 0.0000000e+00 8.9520753e-03 
2.9546105e-04 0.0000000e+00 8.5285043e-03 
2.9546105e-04 0.0000000e+00 8.5285043e-03 
-2.8505383e-04 0.0000000e+00 9.0388444e-03 
-2.8505383e-04 0.0000000e+00 9.0388444e-03 
3.0977086e-04 0.0000000e+00 8.7374501e-03 
3.0977086e-04 0.0000000e+00 8.7374501e-03 
-2.8434152e-04 0.0000000e+00 9.1215171e-03 
-2.8434152e-04 0.0000000e+00 9.1215171e-03 
3.2407661e-04 0.0000000e+00 8.9390097e-03 
3.2407661e-04 0.0000000e+00 8.9390097e-03 
-2.8343654e-04 0.0000000e+00 9.2000372e-03 
-2.8343654e-04 0.0000000e+00 9.2000372e-03 
3.3835827e-04 0.0000000e+00 9.1334180e-03 
3.3835827e-04 0.0000000e+00 9.1334180e-03 
-2.8234371e-04 0.0000000e+00 9.2743599e-03 
-2.8234371e-04 0.0000000e+00 9.2743599e-03 
3.5259645e-04 0.0000000e+00 9.3207038e-03 
3.5259645e-04 0.0000000e+00 9.3207038e-03 
-2.8106892e-04 0.0000000e+00 9.3444594e-03 
-2.8106892e-04 0.0000000e+00 9.3444594e-03 
3.6677068e-04 0.0000000e+00 9.5007907e-03 
3.6677068e-04 0.0000000e+00 9.5007907e-03 
-2.7961664e-04 0.0000000e+00 9.4102823e-03 
-2.7961664e-04 0.0000000e+00 9.4102823e-03 
3.8086195e-04 0.0000000e+00 9.6737536e-03 
3.8086195e-04 0.0000000e+00 9.6737536e-03 
-2.7798957e-04 0.0000000e+00 9.4717253e-03 
-2.7798957e-04 0.0000000e+00 9.4717253e-03 
3.9485260e-04 0.0000000e+00 9.8397306e-03 
3.9485260e-04 0.0000000e+00 9.8397306e-03 
-2.7619232e-04 0.0000000e+00 9.5287059e-03 
4.0872477e-04 0.0000000e+00 9.9987652e-03 
-2.7619232e-04 0.0000000e+00 9.5287059e-03 
4.0872477e-04 0.0000000e+00 9.9987652e-03 
4.2245987e-04 0.0000000e+00 1.0150861e-02 
-2.7423266e-04 0.0000000e+00 9.5812172e-03 
4.2245987e-04 0.0000000e+00 1.0150861e-02 
-2.7423266e-04 0.0000000e+00 9.5812172e-03 
4.3604087e-04 0.0000000e+00 1.0296089e-02 
-2.7211673e-04 0.0000000e+00 9.6292202e-03 
4.3604087e-04 0.0000000e+00 1.0296089e-02 
-2.7211673e-04 0.0000000e+00 9.6292202e-03 
4.4945222e-04 0.0000000e+00 1.0434557e-02 
4.4945222e-04 0.0000000e+00 1.0434557e-02 
-2.6984866e-04 0.0000000e+00 9.6726098e-03 
-2.6984866e-04 0.0000000e+00 9.6726098e-03 
4.6267791e-04 0.0000000e+00 1.0566322e-02 
4.6267791e-04 0.0000000e+00 1.0566322e-02 
-2.6743539e-04 0.0000000e+00 9.7113362e-03 
-2.6743539e-04 0.0000000e+00 9.7113362e-03 
4.7570076e-04 0.0000000e+00 1.0691386e-02 
4.7570076e-04 0.0000000e+00 1.0691386e-02 
-2.6488626e-04 0.0000000e+00 9.7454286e-03 
-2.6488626e-04 0.0000000e+00 9.7454286e-03 
4.8850329e-04 0.0000000e+00 1.0809765e-02 
4.8850329e-04 0.0000000e+00 1.0809765e-02 
-2.6220952e-04 0.0000000e+00 9.7748938e-03 
-2.6220952e-04 0.0000000e+00 9.7748938e-03 
5.0107122e-04 0.0000000e+00 1.0921557e-02 
5.0107122e-04 0.0000000e+00 1.0921557e-02 
-2.5941237e-04 0.0000000e+00 9.7996983e-03 
-2.5941237e-04 0.0000000e+00 9.7996983e-03 
5.1339172e-04 0.0000000e+00 1.1026862e-02 
5.1339172e-04 0.0000000e+00 1.1026862e-02 
-2.5650257e-04 0.0000000e+00 9.8198040e-03 
-2.5650257e-04 0.0000000e+00 9.8198040e-03 
5.2545093e-04 0.0000000e+00 1.1125734e-02 
5.2545093e-04 0.0000000e+00 1.1125734e-02 
-2.5348907e-04 0.0000000e+00 9.8352172e-03 
-2.5348907e-04 0.0000000e+00 9.8352172e-03 
5.3723344e-04 0.0000000e+00 1.1218201e-02 
5.3723344e-04 0.0000000e+00 1.1218201e-02 
-2.5038138e-04 0.0000000e+00 9.8460016e-03 
-2.5038138e-04 0.0000000e+00 9.8460016e-03 
5.4872524e-04 0.0000000e+00 1.1304318e-02 
5.4872524e-04 0.0000000e+00 1.1304318e-02 
-2.4718870e-04 0.0000000e+00 9.8522254e-03 
-2.4718870e-04 0.0000000e+00 9.8522254e-03 
5.5991439e-04 0.0000000e+00 1.1384155e-02 
5.5991439e-04 0.0000000e+00 1.1384155e-02 
-2.4391986e-04 0.0000000e+00 9.8539447e-03 
-2.4391986e-04 0.0000000e+00 9.8539447e-03 
5.7078791e-04 0.0000000e+00 1.1457753e-02 
5.7078791e-04 0.0000000e+00 1.1457753e-02 
-2.4058350e-04 0.0000000e+00 9.8512261e-03 
-2.4058350e-04 0.0000000e+00 9.8512261e-03 
5.8133125e-04 0.0000000e+00 1.1525137e-02 
5.8133125e-04 0.0000000e+00 1.1525137e-02 
-2.3718819e-04 0.0000000e+00 9.8441647e-03 
-2.3718819e-04 0.0000000e+00 9.8441647e-03 
5.9152992e-04 0.0000000e+00 1.1586327e-02 
5.9152992e-04 0.0000000e+00 1.1586327e-02 
-2.3374222e-04 0.0000000e+00 9.8328715e-03 
-2.3374222e-04 0.0000000e+00 9.8328715e-03 
6.0132887e-04 0.0000000e+00 1.1641180e-02 
6.0132887e-04 0.0000000e+00 1.1641180e-02 
-2.3024218e-04 0.0000000e+00 9.8173553e-03 
-2.3024218e-04 0.0000000e+00 9.8173553e-03 
6.1261893e-04 0.0000000e+00 1.1699238e-02 
6.1261893e-04 0.0000000e+00 1.1699238e-02 
-2.2599354e-04 0.0000000e+00 9.7932580e-03 
-2.2599354e-04 0.0000000e+00 9.7932580e-03 
6.2546830e-04 0.0000000e+00 1.1757836e-02 
6.2546830e-04 0.0000000e+00 1.1757836e-02 
-2.2084187e-04 0.0000000e+00 9.7567473e-03 
-2.2084187e-04 0.0000000e+00 9.7567473e-03 
6.3984364e-04 0.0000000e+00 1.1812414e-02 
6.3984364e-04 0.0000000e+00 1.1812414e-02 
-2.1467341e-04 0.0000000e+00 9.7031731e-03 
-2.1467341e-04 0.0000000e+00 9.7031731e-03 
6.5373716e-04 0.0000000e+00 1.1851975e-02 
6.5373716e-04 0.0000000e+00 1.1851975e-02 
-2.0847867e-04 0.0000000e+00 9.6388436e-03 
-2.0847867e-04 0.0000000e+00 9.6388436e-03 
6.6633272e-04 0.0000000e+00 1.1873911e-02 
6.6633272e-04 0.0000000e+00 1.1873911e-02 
-2.0228330e-04 0.0000000e+00 9.5639488e-03 
-2.0228330e-04 0.0000000e+00 9.5639488e-03 
6.7763514e-04 0.0000000e+00 1.1879115e-02 
6.7763514e-04 0.0000000e+00 1.1879115e-02 
-1.9611045e-04 0.0000000e+00 9.4788849e-03 
-1.9611045e-04 0.0000000e+00 9.4788849e-03 
6.8768233e-04 0.0000000e+00 1.1868757e-02 
6.8768233e-04 0.0000000e+00 1.1868757e-02 
-1.8997998e-04 0.0000000e+00 9.3841739e-03 
-1.8997998e-04 0.0000000e+00 9.3841739e-03 
6.9651096e-04 0.0000000e+00 1.1843860e-02 
6.9651096e-04 0.0000000e+00 1.1843860e-02 
-1.8390997e-04 0.0000000e+00 9.2801952e-03 
-1.8390997e-04 0.0000000e+00 9.2801952e-03 
7.0413046e-04 0.0000000e+00 1.1805035e-02 
7.0413046e-04 0.0000000e+00 1.1805035e-02 
-1.7791503e-04 0.0000000e+00 9.1672598e-03 
-1.7791503e-04 0.0000000e+00 9.1672598e-03 
7.1049035e-04 0.0000000e+00 1.1752177e-02 
7.1049035e-04 0.0000000e+00 1.1752177e-02 
-1.7200753e-04 0.0000000e+00 9.0457262e-03 
-1.7200753e-04 0.0000000e+00 9.0457262e-03 
7.1551103e-04 0.0000000e+00 1.1684881e-02 