# vtk DataFile Version 4.0
vtk output
ASCII
DATASET UNSTRUCTURED_GRID
POINTS 824 float
-6.4148600e-05 1.0000000e-02 -4.4525366e-03 
-1.0680180e-04 1.0000000e-02 -2.8088474e-03 
3.4513260e-04 1.0000000e-02 -6.0450544e-03 
1.3803532e-03 1.0000000e-02 -7.3230534e-03 
6.5829700e-05 1.0000000e-02 -1.1736922e-03 
2.7142144e-03 1.0000000e-02 -8.2851896e-03 
5.0392030e-04 1.0000000e-02 6.5784910e-04 
4.1780764e-03 1.0000000e-02 -9.0342357e-03 
1.1628646e-03 1.0000000e-02 2.4220088e-03 
5.7070961e-03 1.0000000e-02 -9.6390187e-03 
2.0046218e-03 1.0000000e-02 4.1066196e-03 
7.2731595e-03 1.0000000e-02 -1.0140047e-02 
-6.4148600e-05 0.0000000e+00 -4.4525366e-03 
-1.0680180e-04 0.0000000e+00 -2.8088474e-03 
3.4513260e-04 0.0000000e+00 -6.0450544e-03 
1.3803532e-03 0.0000000e+00 -7.3230534e-03 
6.5829700e-05 0.0000000e+00 -1.1736922e-03 
2.9952540e-03 1.0000000e-02 5.7082181e-03 
8.8622628e-03 1.0000000e-02 -1.0562311e-02 
2.7142144e-03 0.0000000e+00 -8.2851896e-03 
5.0392030e-04 0.0000000e+00 6.5784910e-04 
4.1780764e-03 0.0000000e+00 -9.0342357e-03 
1.1628646e-03 0.0000000e+00 2.4220088e-03 
1.0466628e-02 1.0000000e-02 -1.0922252e-02 
4.1067238e-03 1.0000000e-02 7.2284501e-03 
5.7070961e-03 0.0000000e+00 -9.6390187e-03 
2.0046218e-03 0.0000000e+00 4.1066196e-03 
7.2731595e-03 0.0000000e+00 -1.0140047e-02 
1.2081579e-02 1.0000000e-02 -1.1231240e-02 
5.3166988e-03 1.0000000e-02 8.6715129e-03 
2.9952540e-03 0.0000000e+00 5.7082181e-03 
8.8622628e-03 0.0000000e+00 -1.0562311e-02 
1.3704120e-02 1.0000000e-02 -1.1497501e-02 
1.0466628e-02 0.0000000e+00 -1.0922252e-02 
4.1067238e-03 0.0000000e+00 7.2284501e-03 
6.6076374e-03 1.0000000e-02 1.0042624e-02 
1.5332244e-02 1.0000000e-02 -1.1727173e-02 
1.2081579e-02 0.0000000e+00 -1.1231240e-02 
5.3166988e-03 0.0000000e+00 8.6715129e-03 
7.9658343e-03 1.0000000e-02 1.1347144e-02 
1.3704120e-02 0.0000000e+00 -1.1497501e-02 
1.6964543e-02 1.0000000e-02 -1.1925002e-02 
6.6076374e-03 0.0000000e+00 1.0042624e-02 
9.3804686e-03 1.0000000e-02 1.2590236e-02 
1.5332244e-02 0.0000000e+00 -1.1727173e-02 
1.8600004e-02 1.0000000e-02 -1.2094716e-02 
7.9658343e-03 0.0000000e+00 1.1347144e-02 
1.6964543e-02 0.0000000e+00 -1.1925002e-02 
1.0843002e-02 1.0000000e-02 1.3776601e-02 
2.0237876e-02 1.0000000e-02 -1.2239318e-02 
9.3804686e-03 0.0000000e+00 1.2590236e-02 
1.8600004e-02 0.0000000e+00 -1.2094716e-02 
1.2346566e-02 1.0000000e-02 1.4910517e-02 
2.1877591e-02 1.0000000e-02 -1.2361246e-02 
1.0843002e-02 0.0000000e+00 1.3776601e-02 
2.0237876e-02 0.0000000e+00 -1.2239318e-02 
1.3885623e-02 1.0000000e-02 1.5995768e-02 
2.3518711e-02 1.0000000e-02 -1.2462540e-02 
1.2346566e-02 0.0000000e+00 1.4910517e-02 
2.1877591e-02 0.0000000e+00 -1.2361246e-02 
2.5160890e-02 1.0000000e-02 -1.2544903e-02 
1.5455654e-02 1.0000000e-02 1.7035707e-02 
1.3885623e-02 0.0000000e+00 1.5995768e-02 
2.3518711e-02 0.0000000e+00 -1.2462540e-02 
2.6803852e-02 1.0000000e-02 -1.2609772e-02 
1.7052912e-02 1.0000000e-02 1.8033321e-02 
2.5160890e-02 0.0000000e+00 -1.2544903e-02 
1.5455654e-02 0.0000000e+00 1.7035707e-02 
2.8447376e-02 1.0000000e-02 -1.2658389e-02 
2.6803852e-02 0.0000000e+00 -1.2609772e-02 
1.7052912e-02 0.0000000e+00 1.8033321e-02 
1.8674284e-02 1.0000000e-02 1.8991246e-02 
3.0091279e-02 1.0000000e-02 -1.2691814e-02 
2.8447376e-02 0.0000000e+00 -1.2658389e-02 
1.8674284e-02 0.0000000e+00 1.8991246e-02 
2.0317149e-02 1.0000000e-02 1.9911822e-02 
3.0091279e-02 0.0000000e+00 -1.2691814e-02 
3.1735410e-02 1.0000000e-02 -1.2710971e-02 
2.0317149e-02 0.0000000e+00 1.9911822e-02 
2.1979295e-02 1.0000000e-02 2.0797113e-02 
3.1735410e-02 0.0000000e+00 -1.2710971e-02 
3.3379643e-02 1.0000000e-02 -1.2716676e-02 
2.1979295e-02 0.0000000e+00 2.0797113e-02 
2.3658832e-02 1.0000000e-02 2.1648949e-02 
3.3379643e-02 0.0000000e+00 -1.2716676e-02 
3.5023871e-02 1.0000000e-02 -1.2709629e-02 
2.3658832e-02 0.0000000e+00 2.1648949e-02 
2.5354100e-02 1.0000000e-02 2.2469029e-02 
3.5023871e-02 0.0000000e+00 -1.2709629e-02 
3.6668001e-02 1.0000000e-02 -1.2690457e-02 
2.5354100e-02 0.0000000e+00 2.2469029e-02 
2.7063712e-02 1.0000000e-02 2.3258772e-02 
3.6668001e-02 0.0000000e+00 -1.2690457e-02 
3.8312016e-02 1.0000000e-02 -1.2663038e-02 
2.7063712e-02 0.0000000e+00 2.3258772e-02 
3.8312016e-02 0.0000000e+00 -1.2663038e-02 
2.8786417e-02 1.0000000e-02 2.4019532e-02 
3.9956032e-02 1.0000000e-02 -1.2635752e-02 
2.8786417e-02 0.0000000e+00 2.4019532e-02 
3.9956032e-02 0.0000000e+00 -1.2635752e-02 
3.0521135e-02 1.0000000e-02 2.4752486e-02 
4.1600048e-02 1.0000000e-02 -1.2608467e-02 
3.0521135e-02 0.0000000e+00 2.4752486e-02 
4.1600048e-02 0.0000000e+00 -1.2608467e-02 
3.2266919e-02 1.0000000e-02 2.5458676e-02 
4.3299814e-02 1.0000000e-02 -1.2580255e-02 
3.2266919e-02 0.0000000e+00 2.5458676e-02 
4.3299814e-02 0.0000000e+00 -1.2580255e-02 
3.4022902e-02 1.0000000e-02 2.6139111e-02 
4.5339533e-02 1.0000000e-02 -1.2546402e-02 
3.4022902e-02 0.0000000e+00 2.6139111e-02 
4.5339533e-02 0.0000000e+00 -1.2546402e-02 
3.5788340e-02 1.0000000e-02 2.6794623e-02 
4.7787196e-02 1.0000000e-02 -1.2505778e-02 
3.5788340e-02 0.0000000e+00 2.6794623e-02 
3.7562554e-02 1.0000000e-02 2.7425996e-02 
4.7787196e-02 0.0000000e+00 -1.2505778e-02 
3.7562554e-02 0.0000000e+00 2.7425996e-02 
3.9344928e-02 1.0000000e-02 2.8033950e-02 
5.0379113e-02 1.0000000e-02 -1.2462760e-02 
3.9344928e-02 0.0000000e+00 2.8033950e-02 
5.0379113e-02 0.0000000e+00 -1.2462760e-02 
4.1134916e-02 1.0000000e-02 2.8619109e-02 
5.2971029e-02 1.0000000e-02 -1.2419741e-02 
4.1134916e-02 0.0000000e+00 2.8619109e-02 
5.2971029e-02 0.0000000e+00 -1.2419741e-02 
4.2932026e-02 1.0000000e-02 2.9182016e-02 
4.2932026e-02 0.0000000e+00 2.9182016e-02 
5.5562946e-02 1.0000000e-02 -1.2376723e-02 
4.5339682e-02 1.0000000e-02 2.9899231e-02 
5.5562946e-02 0.0000000e+00 -1.2376723e-02 
4.5339682e-02 0.0000000e+00 2.9899231e-02 
5.8154863e-02 1.0000000e-02 -1.2333705e-02 
4.7758221e-02 1.0000000e-02 3.0578844e-02 
5.8154863e-02 0.0000000e+00 -1.2333705e-02 
4.7758221e-02 0.0000000e+00 3.0578844e-02 
6.0746779e-02 1.0000000e-02 -1.2290686e-02 
5.0186760e-02 1.0000000e-02 3.1221807e-02 
6.0746779e-02 0.0000000e+00 -1.2290686e-02 
5.0186760e-02 0.0000000e+00 3.1221807e-02 
6.3338696e-02 1.0000000e-02 -1.2247668e-02 
5.2624513e-02 1.0000000e-02 3.1828903e-02 
6.3338696e-02 0.0000000e+00 -1.2247668e-02 
5.2624513e-02 0.0000000e+00 3.1828903e-02 
5.5070762e-02 1.0000000e-02 3.2400804e-02 
6.5930613e-02 1.0000000e-02 -1.2204650e-02 
5.5070762e-02 0.0000000e+00 3.2400804e-02 
6.5930613e-02 0.0000000e+00 -1.2204650e-02 
5.7524847e-02 1.0000000e-02 3.2938082e-02 
6.8522529e-02 1.0000000e-02 -1.2161631e-02 
5.7524847e-02 0.0000000e+00 3.2938082e-02 
6.8522529e-02 0.0000000e+00 -1.2161631e-02 
5.9986169e-02 1.0000000e-02 3.3441170e-02 
7.1114446e-02 1.0000000e-02 -1.2118613e-02 
5.9986169e-02 0.0000000e+00 3.3441170e-02 
7.1114446e-02 0.0000000e+00 -1.2118613e-02 
6.2454163e-02 1.0000000e-02 3.3910436e-02 
6.2454163e-02 0.0000000e+00 3.3910436e-02 
7.3706362e-02 1.0000000e-02 -1.2075595e-02 
7.3706362e-02 0.0000000e+00 -1.2075595e-02 
6.4928303e-02 1.0000000e-02 3.4346139e-02 
6.4928303e-02 0.0000000e+00 3.4346139e-02 
7.6298279e-02 1.0000000e-02 -1.2032577e-02 
7.6298279e-02 0.0000000e+00 -1.2032577e-02 
6.7408092e-02 1.0000000e-02 3.4748446e-02 
6.7408092e-02 0.0000000e+00 3.4748446e-02 
7.8890196e-02 1.0000000e-02 -1.1989558e-02 
7.8890196e-02 0.0000000e+00 -1.1989558e-02 
6.9893057e-02 1.0000000e-02 3.5117436e-02 
6.9893057e-02 0.0000000e+00 3.5117436e-02 
8.1482112e-02 1.0000000e-02 -1.1946540e-02 
8.1482112e-02 0.0000000e+00 -1.1946540e-02 
7.2382742e-02 1.0000000e-02 3.5453098e-02 
7.2382742e-02 0.0000000e+00 3.5453098e-02 
8.4074029e-02 1.0000000e-02 -1.1903522e-02 
7.4876707e-02 1.0000000e-02 3.5755332e-02 
8.4074029e-02 0.0000000e+00 -1.1903522e-02 
7.4876707e-02 0.0000000e+00 3.5755332e-02 
8.6665946e-02 1.0000000e-02 -1.1860503e-02 
7.7374516e-02 1.0000000e-02 3.6023948e-02 
8.6665946e-02 0.0000000e+00 -1.1860503e-02 
7.7374516e-02 0.0000000e+00 3.6023948e-02 
8.9257862e-02 1.0000000e-02 -1.1817485e-02 
7.9875738e-02 1.0000000e-02 3.6258665e-02 
8.9257862e-02 0.0000000e+00 -1.1817485e-02 
7.9875738e-02 0.0000000e+00 3.6258665e-02 
8.2379940e-02 1.0000000e-02 3.6459105e-02 
9.1849779e-02 1.0000000e-02 -1.1774467e-02 
8.2379940e-02 0.0000000e+00 3.6459105e-02 
9.1849779e-02 0.0000000e+00 -1.1774467e-02 
8.4886681e-02 1.0000000e-02 3.6624786e-02 
9.4441696e-02 1.0000000e-02 -1.1731448e-02 
8.4886681e-02 0.0000000e+00 3.6624786e-02 
9.4441696e-02 0.0000000e+00 -1.1731448e-02 
8.7395510e-02 1.0000000e-02 3.6755108e-02 
8.7395510e-02 0.0000000e+00 3.6755108e-02 
9.7033612e-02 1.0000000e-02 -1.1688430e-02 
9.7033612e-02 0.0000000e+00 -1.1688430e-02 
8.9905951e-02 1.0000000e-02 3.6849401e-02 
8.9905951e-02 0.0000000e+00 3.6849401e-02 
9.9625529e-02 1.0000000e-02 -1.1645412e-02 
9.9625529e-02 0.0000000e+00 -1.1645412e-02 
9.2417505e-02 1.0000000e-02 3.6906832e-02 
9.2417505e-02 0.0000000e+00 3.6906832e-02 
1.0221745e-01 1.0000000e-02 -1.1602393e-02 
1.0221745e-01 0.0000000e+00 -1.1602393e-02 
9.4929640e-02 1.0000000e-02 3.6926425e-02 
9.4929640e-02 0.0000000e+00 3.6926425e-02 
1.0480936e-01 1.0000000e-02 -1.1559375e-02 
1.0480936e-01 0.0000000e+00 -1.1559375e-02 
9.7441776e-02 1.0000000e-02 3.6907077e-02 
9.7441776e-02 0.0000000e+00 3.6907077e-02 
1.0740128e-01 1.0000000e-02 -1.1516357e-02 
1.0740128e-01 0.0000000e+00 -1.1516357e-02 
9.9953281e-02 1.0000000e-02 3.6847529e-02 
9.9953281e-02 0.0000000e+00 3.6847529e-02 
1.0999320e-01 1.0000000e-02 -1.1473339e-02 
1.0246345e-01 1.0000000e-02 3.6746314e-02 
1.0999320e-01 0.0000000e+00 -1.1473339e-02 
1.0246345e-01 0.0000000e+00 3.6746314e-02 
1.0497150e-01 1.0000000e-02 3.6601738e-02 
1.1258511e-01 1.0000000e-02 -1.1430320e-02 
1.0497150e-01 0.0000000e+00 3.6601738e-02 
1.1258511e-01 0.0000000e+00 -1.1430320e-02 
1.0747666e-01 1.0000000e-02 3.6413638e-02 
1.1517703e-01 1.0000000e-02 -1.1387302e-02 
1.0747666e-01 0.0000000e+00 3.6413638e-02 
[...]
POINT_DATA 824
FIELD FieldData 2
DISPLACEMENT 3 824  float
0.0000000e+00 0.0000000e+00 0.0000000e+00 
0.0000000e+00 0.0000000e+00 0.0000000e+00 
0.0000000e+00 0.0000000e+00 0.0000000e+00 
0.0000000e+00 0.0000000e+00 0.0000000e+00 
0.0000000e+00 0.0000000e+00 0.0000000e+00 
0.0000000e+00 0.0000000e+00 0.0000000e+00 
0.0000000e+00 0.0000000e+00 0.0000000e+00 
0.0000000e+00 0.0000000e+00 0.0000000e+00 
0.0000000e+00 0.0000000e+00 0.0000000e+00 
0.0000000e+00 0.0000000e+00 0.0000000e+00 
0.0000000e+00 0.0000000e+00 0.0000000e+00 
0.0000000e+00 0.0000000e+00 0.0000000e+00 
0.0000000e+00 0.0000000e+00 0.0000000e+00 
0.0000000e+00 0.0000000e+00 0.0000000e+00 
0.0000000e+00 0.0000000e+00 0.0000000e+00 
0.0000000e+00 0.0000000e+00 0.0000000e+00 
0.0000000e+00 0.0000000e+00 0.0000000e+00 
0.0000000e+00 0.0000000e+00 0.0000000e+00 
0.0000000e+00 0.0000000e+00 0.0000000e+00 
0.0000000e+00 0.0000000e+00 0.0000000e+00 
0.0000000e+00 0.0000000e+00 0.0000000e+00 
0.0000000e+00 0.0000000e+00 0.0000000e+00 
0.0000000e+00 0.0000000e+00 0.0000000e+00 
0.0000000e+00 0.0000000e+00 0.0000000e+00 
0.0000000e+00 0.0000000e+00 0.0000000e+00 
0.0000000e+00 0.0000000e+00 0.0000000e+00 
0.0000000e+00 0.0000000e+00 0.0000000e+00 
0.0000000e+00 0.0000000e+00 0.0000000e+00 
0.0000000e+00 0.0000000e+00 0.0000000e+00 
0.0000000e+00 0.0000000e+00 0.0000000e+00 
0.0000000e+00 0.0000000e+00 0.0000000e+00 
0.0000000e+00 0.0000000e+00 0.0000000e+00 
0.0000000e+00 0.0000000e+00 0.0000000e+00 
0.0000000e+00 0.0000000e+00 0.0000000e+00 
0.0000000e+00 0.0000000e+00 0.0000000e+00 
0.0000000e+00 0.0000000e+00 0.0000000e+00 
0.0000000e+00 0.0000000e+00 0.0000000e+00 
0.0000000e+00 0.0000000e+00 0.0000000e+00 
0.0000000e+00 0.0000000e+00 0.0000000e+00 
0.0000000e+00 0.0000000e+00 0.0000000e+00 
0.0000000e+00 0.0000000e+00 0.0000000e+00 
0.0000000e+00 0.0000000e+00 0.0000000e+00 
0.0000000e+00 0.0000000e+00 0.0000000e+00 
0.0000000e+00 0.0000000e+00 0.0000000e+00 
0.0000000e+00 0.0000000e+00 0.0000000e+00 
0.0000000e+00 0.0000000e+00 0.0000000e+00 
0.0000000e+00 0.0000000e+00 0.0000000e+00 
0.0000000e+00 0.0000000e+00 0.0000000e+00 
0.0000000e+00 0.0000000e+00 0.0000000e+00 
0.0000000e+00 0.0000000e+00 0.0000000e+00 
0.0000000e+00 0.0000000e+00 0.0000000e+00 
0.0000000e+00 0.0000000e+00 0.0000000e+00 
0.0000000e+00 0.0000000e+00 0.0000000e+00 
0.0000000e+00 0.0000000e+00 0.0000000e+00 
0.0000000e+00 0.0000000e+00 0.0000000e+00 
0.0000000e+00 0.0000000e+00 0.0000000e+00 
0.0000000e+00 0.0000000e+00 0.0000000e+00 
0.0000000e+00 0.0000000e+00 0.0000000e+00 
0.0000000e+00 0.0000000e+00 0.0000000e+00 
0.0000000e+00 0.0000000e+00 0.0000000e+00 
0.0000000e+00 0.0000000e+00 0.0000000e+00 
0.0000000e+00 0.0000000e+00 0.0000000e+00 
0.0000000e+00 0.0000000e+00 0.0000000e+00 
0.0000000e+00 0.0000000e+00 0.0000000e+00 
0.0000000e+00 0.0000000e+00 0.0000000e+00 
0.0000000e+00 0.0000000e+00 0.0000000e+00 
0.0000000e+00 0.0000000e+00 0.0000000e+00 
0.0000000e+00 0.0000000e+00 0.0000000e+00 
0.0000000e+00 0.0000000e+00 0.0000000e+00 
0.0000000e+00 0.0000000e+00 0.0000000e+00 
0.0000000e+00 0.0000000e+00 0.0000000e+00 
0.0000000e+00 0.0000000e+00 0.0000000e+00 
0.0000000e+00 0.0000000e+00 0.0000000e+00 
0.0000000e+00 0.0000000e+00 0.0000000e+00 
0.0000000e+00 0.0000000e+00 0.0000000e+00 
0.0000000e+00 0.0000000e+00 0.0000000e+00 
0.0000000e+00 0.0000000e+00 0.0000000e+00 
0.0000000e+00 0.0000000e+00 0.0000000e+00 
0.0000000e+00 0.0000000e+00 0.0000000e+00 
0.0000000e+00 0.0000000e+00 0.0000000e+00 
0.0000000e+00 0.0000000e+00 0.0000000e+00 
0.0000000e+00 0.0000000e+00 0.0000000e+00 
0.0000000e+00 0.0000000e+00 0.0000000e+00 
0.0000000e+00 0.0000000e+00 0.0000000e+00 
0.0000000e+00 0.0000000e+00 0.0000000e+00 
0.0000000e+00 0.0000000e+00 0.0000000e+00 
0.0000000e+00 0.0000000e+00 0.0000000e+00 
0.0000000e+00 0.0000000e+00 0.0000000e+00 
0.0000000e+00 0.0000000e+00 0.0000000e+00 
0.0000000e+00 0.0000000e+00 0.0000000e+00 
0.0000000e+00 0.0000000e+00 0.0000000e+00 
0.0000000e+00 0.0000000e+00 0.0000000e+00 
0.0000000e+00 0.0000000e+00 0.0000000e+00 
0.0000000e+00 0.0000000e+00 0.0000000e+00 
0.0000000e+00 0.0000000e+00 0.0000000e+00 
0.0000000e+00 0.0000000e+00 0.0000000e+00 
0.0000000e+00 0.0000000e+00 0.0000000e+00 
-2.1309102e-05 0.0000000e+00 2.8873297e-04 
0.0000000e+00 0.0000000e+00 0.0000000e+00 
-2.1309102e-05 0.0000000e+00 2.8873297e-04 
0.0000000e+00 0.0000000e+00 0.0000000e+00 
-4.2339314e-05 0.0000000e+00 5.7600704e-04 
0.0000000e+00 0.0000000e+00 0.0000000e+00 
-4.2339314e-05 0.0000000e+00 5.7600704e-04 
0.0000000e+00 0.0000000e+00 0.0000000e+00 
-6.3773321e-05 0.0000000e+00 8.7139598e-04 
0.0000000e+00 0.0000000e+00 0.0000000e+00 
-6.3773321e-05 0.0000000e+00 8.7139598e-04 
0.0000000e+00 0.0000000e+00 0.0000000e+00 
-8.9054238e-05 0.0000000e+00 1.2235428e-03 
0.0000000e+00 0.0000000e+00 0.0000000e+00 
-8.9054238e-05 0.0000000e+00 1.2235428e-03 
0.0000000e+00 0.0000000e+00 0.0000000e+00 
-1.1873113e-04 0.0000000e+00 1.6426179e-03 
0.0000000e+00 0.0000000e+00 0.0000000e+00 
0.0000000e+00 0.0000000e+00 0.0000000e+00 
-1.1873113e-04 0.0000000e+00 1.6426179e-03 
0.0000000e+00 0.0000000e+00 0.0000000e+00 
0.0000000e+00 0.0000000e+00 0.0000000e+00 
-1.4933647e-04 0.0000000e+00 2.0820115e-03 
0.0000000e+00 0.0000000e+00 0.0000000e+00 
-1.4933647e-04 0.0000000e+00 2.0820115e-03 
0.0000000e+00 0.0000000e+00 0.0000000e+00 
-1.7904732e-04 0.0000000e+00 2.5165892e-03 
0.0000000e+00 0.0000000e+00 0.0000000e+00 
-1.7904732e-04 0.0000000e+00 2.5165892e-03 
0.0000000e+00 0.0000000e+00 0.0000000e+00 
0.0000000e+00 0.0000000e+00 0.0000000e+00 
-2.0780736e-04 0.0000000e+00 2.9460011e-03 
0.0000000e+00 0.0000000e+00 0.0000000e+00 
-2.0780736e-04 0.0000000e+00 2.9460011e-03 
0.0000000e+00 0.0000000e+00 0.0000000e+00 
-2.3557167e-04 0.0000000e+00 3.3699353e-03 
0.0000000e+00 0.0000000e+00 0.0000000e+00 
-2.3557167e-04 0.0000000e+00 3.3699353e-03 
0.0000000e+00 0.0000000e+00 0.0000000e+00 
-2.6232877e-04 0.0000000e+00 3.7882558e-03 
0.0000000e+00 0.0000000e+00 0.0000000e+00 
-2.6232877e-04 0.0000000e+00 3.7882558e-03 
0.0000000e+00 0.0000000e+00 0.0000000e+00 
-2.8808286e-04 0.0000000e+00 4.2009237e-03 
0.0000000e+00 0.0000000e+00 0.0000000e+00 
-2.8808286e-04 0.0000000e+00 4.2009237e-03 
0.0000000e+00 0.0000000e+00 0.0000000e+00 
0.0000000e+00 0.0000000e+00 0.0000000e+00 
-3.1281850e-04 0.0000000e+00 4.6077832e-03 
0.0000000e+00 0.0000000e+00 0.0000000e+00 
-3.1281850e-04 0.0000000e+00 4.6077832e-03 
0.0000000e+00 0.0000000e+00 0.0000000e+00 
-3.3651735e-04 0.0000000e+00 5.0086431e-03 
0.0000000e+00 0.0000000e+00 0.0000000e+00 
-3.3651735e-04 0.0000000e+00 5.0086431e-03 
0.0000000e+00 0.0000000e+00 0.0000000e+00 
-3.5918416e-04 0.0000000e+00 5.4034448e-03 
0.0000000e+00 0.0000000e+00 0.0000000e+00 
-3.5918416e-04 0.0000000e+00 5.4034448e-03 
0.0000000e+00 0.0000000e+00 0.0000000e+00 
0.0000000e+00 0.0000000e+00 0.0000000e+00 
-3.8084024e-04 0.0000000e+00 5.7922355e-03 
-3.8084024e-04 0.0000000e+00 5.7922355e-03 
0.0000000e+00 0.0000000e+00 0.0000000e+00 
0.0000000e+00 0.0000000e+00 0.0000000e+00 
-4.0149415e-04 0.0000000e+00 6.1749890e-03 
-4.0149415e-04 0.0000000e+00 6.1749890e-03 
0.0000000e+00 0.0000000e+00 0.0000000e+00 
0.0000000e+00 0.0000000e+00 0.0000000e+00 
-4.2113531e-04 0.0000000e+00 6.5515450e-03 
-4.2113531e-04 0.0000000e+00 6.5515450e-03 
0.0000000e+00 0.0000000e+00 0.0000000e+00 
0.0000000e+00 0.0000000e+00 0.0000000e+00 
-4.3976748e-04 0.0000000e+00 6.9218290e-03 
-4.3976748e-04 0.0000000e+00 6.9218290e-03 
0.0000000e+00 0.0000000e+00 0.0000000e+00 
0.0000000e+00 0.0000000e+00 0.0000000e+00 
-4.5742159e-04 0.0000000e+00 7.2859483e-03 
0.0000000e+00 0.0000000e+00 0.0000000e+00 
-4.5742159e-04 0.0000000e+00 7.2859483e-03 
0.0000000e+00 0.0000000e+00 0.0000000e+00 
-4.7411872e-04 0.0000000e+00 7.6439512e-03 
0.0000000e+00 0.0000000e+00 0.0000000e+00 
-4.7411872e-04 0.0000000e+00 7.6439512e-03 
0.0000000e+00 0.0000000e+00 0.0000000e+00 
-4.8985662e-04 0.0000000e+00 7.9957200e-03 
0.0000000e+00 0.0000000e+00 0.0000000e+00 
-4.8985662e-04 0.0000000e+00 7.9957200e-03 
0.0000000e+00 0.0000000e+00 0.0000000e+00 
0.0000000e+00 0.0000000e+00 0.0000000e+00 
-5.0464543e-04 0.0000000e+00 8.3412116e-03 
0.0000000e+00 0.0000000e+00 0.0000000e+00 
-5.0464543e-04 0.0000000e+00 8.3412116e-03 
0.0000000e+00 0.0000000e+00 0.0000000e+00 
-5.1852426e-04 0.0000000e+00 8.6805966e-03 
0.0000000e+00 0.0000000e+00 0.0000000e+00 
-5.1852426e-04 0.0000000e+00 8.6805966e-03 
0.0000000e+00 0.0000000e+00 0.0000000e+00 
0.0000000e+00 0.0000000e+00 0.0000000e+00 
-5.3152604e-04 0.0000000e+00 9.0140138e-03 
-5.3152604e-04 0.0000000e+00 9.0140138e-03 
0.0000000e+00 0.0000000e+00 0.0000000e+00 
0.0000000e+00 0.0000000e+00 0.0000000e+00 
-5.4365208e-04 0.0000000e+00 9.3413669e-03 
-5.4365208e-04 0.0000000e+00 9.3413669e-03 
0.0000000e+00 0.0000000e+00 0.0000000e+00 
0.0000000e+00 0.0000000e+00 0.0000000e+00 
-5.5490694e-04 0.0000000e+00 9.6625782e-03 
-5.5490694e-04 0.0000000e+00 9.6625782e-03 
0.0000000e+00 0.0000000e+00 0.0000000e+00 
0.0000000e+00 0.0000000e+00 0.0000000e+00 
-5.6532544e-04 0.0000000e+00 9.9778053e-03 
-5.6532544e-04 0.0000000e+00 9.9778053e-03 
0.0000000e+00 0.0000000e+00 0.0000000e+00 
0.0000000e+00 0.0000000e+00 0.0000000e+00 
-5.7494005e-04 0.0000000e+00 1.0287197e-02 
-5.7494005e-04 0.0000000e+00 1.0287197e-02 
0.0000000e+00 0.0000000e+00 0.0000000e+00 
0.0000000e+00 0.0000000e+00 0.0000000e+00 
-5.8375737e-04 0.0000000e+00 1.0590692e-02 
0.0000000e+00 0.0000000e+00 0.0000000e+00 
-5.8375737e-04 0.0000000e+00 1.0590692e-02 
0.0000000e+00 0.0000000e+00 0.0000000e+00 
-2.5153680e-05 0.0000000e+00 6.8676682e-04 
-5.9179035e-04 0.0000000e+00 1.0888275e-02 
-2.5153680e-05 0.0000000e+00 6.8676682e-04 
-5.9179035e-04 0.0000000e+00 1.0888275e-02 
-4.5533751e-05 0.0000000e+00 1.4081876e-03 
-5.9907635e-04 0.0000000e+00 1.1180143e-02 
-4.5533751e-05 0.0000000e+00 1.4081876e-03 
-5.9907635e-04 0.0000000e+00 1.1180143e-02 
-6.2959168e-05 0.0000000e+00 2.1323346e-03 
-6.2959168e-05 0.0000000e+00 2.1323346e-03 
-6.0564467e-04 0.0000000e+00 1.1466438e-02 
-6.0564467e-04 0.0000000e+00 1.1466438e-02 
-7.8374144e-05 0.0000000e+00 2.8466721e-03 
-7.8374144e-05 0.0000000e+00 2.8466721e-03 
-6.1150027e-04 0.0000000e+00 1.1747092e-02 
-6.1150027e-04 0.0000000e+00 1.1747092e-02 
-9.1835074e-05 0.0000000e+00 3.5513177e-03 
-9.1835074e-05 0.0000000e+00 3.5513177e-03 
-6.1665471e-04 0.0000000e+00 1.2022097e-02 
-6.1665471e-04 0.0000000e+00 1.2022097e-02 
-1.0333082e-04 0.0000000e+00 4.2460589e-03 
-1.0333082e-04 0.0000000e+00 4.2460589e-03 
-6.2113644e-04 0.0000000e+00 1.2291594e-02 
-6.2113644e-04 0.0000000e+00 1.2291594e-02 
-1.1280536e-04 0.0000000e+00 4.9303932e-03 
-1.1280536e-04 0.0000000e+00 4.9303932e-03 
-6.2496283e-04 0.0000000e+00 1.2555638e-02 
-6.2496283e-04 0.0000000e+00 1.2555638e-02 
-1.2022659e-04 0.0000000e+00 5.6039204e-03 
-1.2022659e-04 0.0000000e+00 5.6039204e-03 
-6.2814141e-04 0.0000000e+00 1.2814191e-02 
-1.2559770e-04 0.0000000e+00 6.2663893e-03 
-6.2814141e-04 0.0000000e+00 1.2814191e-02 
-1.2559770e-04 0.0000000e+00 6.2663893e-03 
-1.2894293e-04 0.0000000e+00 6.9176571e-03 
-6.3069488e-04 0.0000000e+00 1.3067336e-02 
-1.2894293e-04 0.0000000e+00 6.9176571e-03 
-6.3069488e-04 0.0000000e+00 1.3067336e-02 
-1.3029711e-04 0.0000000e+00 7.5576253e-03 
-6.3265041e-04 0.0000000e+00 1.3315225e-02 
-1.3029711e-04 0.0000000e+00 7.5576253e-03 
-6.3265041e-04 0.0000000e+00 1.3315225e-02 
-1.2970037e-04 0.0000000e+00 8.1862197e-03 
-1.2970037e-04 0.0000000e+00 8.1862197e-03 
-6.3401786e-04 0.0000000e+00 1.3557857e-02 
-6.3401786e-04 0.0000000e+00 1.3557857e-02 
-1.2720667e-04 0.0000000e+00 8.8034621e-03 
-1.2720667e-04 0.0000000e+00 8.8034621e-03 
-6.3480193e-04 0.0000000e+00 1.3795175e-02 
-6.3480193e-04 0.0000000e+00 1.3795175e-02 
-1.2286364e-04 0.0000000e+00 9.4093272e-03 
-1.2286364e-04 0.0000000e+00 9.4093272e-03 
-6.3502137e-04 0.0000000e+00 1.4027244e-02 
-6.3502137e-04 0.0000000e+00 1.4027244e-02 
-1.1670978e-04 0.0000000e+00 1.0003729e-02 
-1.1670978e-04 0.0000000e+00 1.0003729e-02 
-6.3469636e-04 0.0000000e+00 1.4254163e-02 
-6.3469636e-04 0.0000000e+00 1.4254163e-02 
-1.0879515e-04 0.0000000e+00 1.0586638e-02 
-1.0879515e-04 0.0000000e+00 1.0586638e-02 
-6.3383198e-04 0.0000000e+00 1.4475892e-02 
-6.3383198e-04 0.0000000e+00 1.4475892e-02 
-9.9174184e-05 0.0000000e+00 1.1158071e-02 
-9.9174184e-05 0.0000000e+00 1.1158071e-02 
-6.3243347e-04 0.0000000e+00 1.4692369e-02 
-6.3243347e-04 0.0000000e+00 1.4692369e-02 
-8.7896961e-05 0.0000000e+00 1.1718010e-02 
-8.7896961e-05 0.0000000e+00 1.1718010e-02 
-6.3052086e-04 0.0000000e+00 1.4903685e-02 
-6.3052086e-04 0.0000000e+00 1.4903685e-02 
-7.5015978e-05 0.0000000e+00 1.2266448e-02 
-7.5015978e-05 0.0000000e+00 1.2266448e-02 
-6.2811189e-04 0.0000000e+00 1.5109923e-02 
-6.0591091e-05 0.0000000e+00 1.2803438e-02 
-6.2811189e-04 0.0000000e+00 1.5109923e-02 
-6.0591091e-05 0.0000000e+00 1.2803438e-02 
-6.2521027e-04 0.0000000e+00 1.5311023e-02 
-4.4682770e-05 0.0000000e+00 1.3329046e-02 
-6.2521027e-04 0.0000000e+00 1.5311023e-02 
-4.4682770e-05 0.0000000e+00 1.3329046e-02 
-2.7341599e-05 0.0000000e+00 1.3843277e-02 
-6.2182317e-04 0.0000000e+00 1.5506950e-02 
-2.7341599e-05 0.0000000e+00 1.3843277e-02 
-6.2182317e-04 0.0000000e+00 1.5506950e-02 
-8.6182420e-06 0.0000000e+00 1.4346116e-02 
-8.6182420e-06 0.0000000e+00 1.4346116e-02 
-6.1796946e-04 0.0000000e+00 1.5697793e-02 
-6.1796946e-04 0.0000000e+00 1.5697793e-02 
1.1429301e-05 0.0000000e+00 1.4837621e-02 
1.1429301e-05 0.0000000e+00 1.4837621e-02 
-6.1366308e-04 0.0000000e+00 1.5883603e-02 
-6.1366308e-04 0.0000000e+00 1.5883603e-02 
3.2746523e-05 0.0000000e+00 1.5317823e-02 
3.2746523e-05 0.0000000e+00 1.5317823e-02 
-6.0890715e-04 0.0000000e+00 1.6064311e-02 
-6.0890715e-04 0.0000000e+00 1.6064311e-02 
5.5284336e-05 0.0000000e+00 1.5786711e-02 
5.5284336e-05 0.0000000e+00 1.5786711e-02 
-6.0370859e-04 0.0000000e+00 1.6239873e-02 
-6.0370859e-04 0.0000000e+00 1.6239873e-02 
7.8988466e-05 0.0000000e+00 1.6244318e-02 
7.8988466e-05 0.0000000e+00 1.6244318e-02 
-5.9808388e-04 0.0000000e+00 1.6410359e-02 
-5.9808388e-04 0.0000000e+00 1.6410359e-02 
1.0380078e-04 0.0000000e+00 1.6690723e-02 
1.0380078e-04 0.0000000e+00 1.6690723e-02 
-5.9204707e-04 0.0000000e+00 1.6575827e-02 
-5.9204707e-04 0.0000000e+00 1.6575827e-02 
1.2966668e-04 0.0000000e+00 1.7125989e-02 
1.2966668e-04 0.0000000e+00 1.7125989e-02 
-5.8560408e-04 0.0000000e+00 1.6736233e-02 
-5.8560408e-04 0.0000000e+00 1.6736233e-02 
1.5653658e-04 0.0000000e+00 1.7550124e-02 
1.5653658e-04 0.0000000e+00 1.7550124e-02 
-5.7876270e-04 0.0000000e+00 1.6891547e-02 
-5.7876270e-04 0.0000000e+00 1.6891547e-02 
1.8435933e-04 0.0000000e+00 1.7963160e-02 
1.8435933e-04 0.0000000e+00 1.7963160e-02 
-5.7153758e-04 0.0000000e+00 1.7041832e-02 
-5.7153758e-04 0.0000000e+00 1.7041832e-02 
2.1308032e-04 0.0000000e+00 1.8365172e-02 
2.1308032e-04 0.0000000e+00 1.8365172e-02 
-5.6394171e-04 0.0000000e+00 1.7187132e-02 
-5.6394171e-04 0.0000000e+00 1.7187132e-02 
2.4264879e-04 0.0000000e+00 1.8756199e-02 
2.4264879e-04 0.0000000e+00 1.8756199e-02 
-5.5598269e-04 0.0000000e+00 1.7327427e-02 
-5.5598269e-04 0.0000000e+00 1.7327427e-02 
2.7301620e-04 0.0000000e+00 1.9136252e-02 
2.7301620e-04 0.0000000e+00 1.9136252e-02 
-5.4766857e-04 0.0000000e+00 1.7462690e-02 
3.0413115e-04 0.0000000e+00 1.9505397e-02 
-5.4766857e-04 0.0000000e+00 1.7462690e-02 
3.0413115e-04 0.0000000e+00 1.9505397e-02 
3.3594130e-04 0.0000000e+00 1.9863725e-02 
-5.3901098e-04 0.0000000e+00 1.7592944e-02 
3.3594130e-04 0.0000000e+00 1.9863725e-02 
-5.3901098e-04 0.0000000e+00 1.7592944e-02 
3.6839710e-04 0.0000000e+00 2.0211299e-02 
-5.3002240e-04 0.0000000e+00 1.7718233e-02 
3.6839710e-04 0.0000000e+00 2.0211299e-02 
-5.3002240e-04 0.0000000e+00 1.7718233e-02 
4.0145130e-04 0.0000000e+00 2.0548162e-02 
4.0145130e-04 0.0000000e+00 2.0548162e-02 
-5.2071321e-04 0.0000000e+00 1.7838580e-02 
-5.2071321e-04 0.0000000e+00 1.7838580e-02 
4.3505594e-04 0.0000000e+00 2.0874374e-02 
4.3505594e-04 0.0000000e+00 2.0874374e-02 
-5.1109172e-04 0.0000000e+00 1.7953961e-02 
-5.1109172e-04 0.0000000e+00 1.7953961e-02 
4.6916355e-04 0.0000000e+00 2.1190008e-02 
4.6916355e-04 0.0000000e+00 2.1190008e-02 
-5.0116700e-04 0.0000000e+00 1.8064370e-02 
-5.0116700e-04 0.0000000e+00 1.8064370e-02 
5.0372845e-04 0.0000000e+00 2.1495103e-02 
5.0372845e-04 0.0000000e+00 2.1495103e-02 
-4.9095019e-04 0.0000000e+00 1.8169836e-02 
-4.9095019e-04 0.0000000e+00 1.8169836e-02 
5.3870567e-04 0.0000000e+00 2.1789693e-02 
5.3870567e-04 0.0000000e+00 2.1789693e-02 
-4.8045140e-04 0.0000000e+00 1.8270375e-02 
-4.8045140e-04 0.0000000e+00 1.8270375e-02 
5.7404987e-04 0.0000000e+00 2.2073847e-02 
5.7404987e-04 0.0000000e+00 2.2073847e-02 
-4.6967919e-04 0.0000000e+00 1.8365970e-02 
-4.6967919e-04 0.0000000e+00 1.8365970e-02 
6.0971661e-04 0.0000000e+00 2.2347633e-02 
6.0971661e-04 0.0000000e+00 2.2347633e-02 
-4.5864311e-04 0.0000000e+00 1.8456618e-02 
-4.5864311e-04 0.0000000e+00 1.8456618e-02 
6.4566243e-04 0.0000000e+00 2.2611081e-02 
6.4566243e-04 0.0000000e+00 2.2611081e-02 
-4.4735361e-04 0.0000000e+00 1.8542340e-02 
-4.4735361e-04 0.0000000e+00 1.8542340e-02 
6.8184325e-04 0.0000000e+00 2.2864231e-02 
6.8184325e-04 0.0000000e+00 2.2864231e-02 
-4.3582051e-04 0.0000000e+00 1.8623150e-02 
-4.3582051e-04 0.0000000e+00 1.8623150e-02 
7.1821610e-04 0.0000000e+00 2.3107200e-02 
7.1821610e-04 0.0000000e+00 2.3107200e-02 
-4.2405171e-04 0.0000000e+00 1.8699011e-02 
-4.2405171e-04 0.0000000e+00 1.8699011e-02 
7.5473925e-04 0.0000000e+00 2.3340076e-02 
7.5473925e-04 0.0000000e+00 2.3340076e-02 
-4.1205478e-04 0.0000000e+00 1.8769871e-02 
-4.1205478e-04 0.0000000e+00 1.8769871e-02 
7.9137012e-04 0.0000000e+00 2.3562895e-02 
7.9137012e-04 0.0000000e+00 2.3562895e-02 
-3.9983943e-04 0.0000000e+00 1.8835738e-02 
-3.9983943e-04 0.0000000e+00 1.8835738e-02 
8.2806621e-04 0.0000000e+00 2.3775772e-02 
8.2806621e-04 0.0000000e+00 2.3775772e-02 
-3.8741597e-04 0.0000000e+00 1.8896624e-02 
-3.8741597e-04 0.0000000e+00 1.8896624e-02 
8.6461055e-04 0.0000000e+00 2.3977964e-02 
8.6461055e-04 0.0000000e+00 2.3977964e-02 
-3.7475532e-04 0.0000000e+00 1.8952655e-02 
-3.7475532e-04 0.0000000e+00 1.8952655e-02 
9.0845007e-04 0.0000000e+00 2.4208153e-02 
9.0845007e-04 0.0000000e+00 2.4208153e-02 
-3.5931117e-04 0.0000000e+00 1.9013205e-02 
-3.5931117e-04 0.0000000e+00 1.9013205e-02 
9.6096403e-04 0.0000000e+00 2.4466808e-02 
9.6096403e-04 0.0000000e+00 2.4466808e-02 
-3.4044114e-04 0.0000000e+00 1.9076302e-02 
-3.4044114e-04 0.0000000e+00 1.9076302e-02 
1.0237245e-03 0.0000000e+00 2.4752314e-02 
1.0237245e-03 0.0000000e+00 2.4752314e-02 
-3.1758956e-04 0.0000000e+00 1.9137809e-02 
-3.1758956e-04 0.0000000e+00 1.9137809e-02 
1.0893888e-03 0.0000000e+00 2.5024091e-02 
1.0893888e-03 0.0000000e+00 2.5024091e-02 
-2.9430576e-04 0.0000000e+00 1.9184665e-02 
-2.9430576e-04 0.0000000e+00 1.9184665e-02 
1.1543910e-03 0.0000000e+00 2.5266292e-02 
1.1543910e-03 0.0000000e+00 2.5266292e-02 
-2.7063227e-04 0.0000000e+00 1.9216649e-02 
-2.7063227e-04 0.0000000e+00 1.9216649e-02 
1.2185510e-03 0.0000000e+00 2.5479159e-02 
1.2185510e-03 0.0000000e+00 2.5479159e-02 
-2.4661573e-04 0.0000000e+00 1.9233608e-02 
-2.4661573e-04 0.0000000e+00 1.9233608e-02 
1.2816898e-03 0.0000000e+00 2.5662881e-02 
1.2816898e-03 0.0000000e+00 2.5662881e-02 
-2.2230624e-04 0.0000000e+00 1.9235488e-02 
-2.2230624e-04 0.0000000e+00 1.9235488e-02 
1.3436305e-03 0.0000000e+00 2.5817618e-02 
1.3436305e-03 0.0000000e+00 2.5817618e-02 
-1.9775307e-04 0.0000000e+00 1.9222123e-02 
-1.9775307e-04 0.0000000e+00 1.9222123e-02 
1.4042012e-03 0.0000000e+00 2.5943585e-02 
1.4042012e-03 0.0000000e+00 2.5943585e-02 
-1.7300588e-04 0.0000000e+00 1.9193258e-02 
-1.7300588e-04 0.0000000e+00 1.9193258e-02 
1.4632359e-03 0.0000000e+00 2.6041028e-02 
1.4632359e-03 0.0000000e+00 2.6041028e-02 
-1.4811818e-04 0.0000000e+00 1.9148776e-02 
-1.4811818e-04 0.0000000e+00 1.9148776e-02 