# vtk DataFile Version 4.0
vtk output
ASCII
DATASET UNSTRUCTURED_GRID
POINTS 824 float
-6.4148600e-05 1.0000000e-02 -4.4525366e-03 
-1.0680180e-04 1.0000000e-02 -2.8088474e-03 
3.4513260e-04 1.0000000e-02 -6.0450544e-03 
1.3803532e-03 1.0000000e-02 -7.3230534e-03 
6.5829700e-05 1.0000000e-02 -1.1736922e-03 
2.7142144e-03 1.0000000e-02 -8.2851896e-03 
5.0392030e-04 1.0000000e-02 6.5784910e-04 
4.1780764e-03 1.0000000e-02 -9.0342357e-03 
1.1628646e-03 1.0000000e-02 2.4220088e-03 
5.7070961e-03 1.0000000e-02 -9.6390187e-03 
2.0046218e-03 1.0000000e-02 4.1066196e-03 
7.2731595e-03 1.0000000e-02 -1.0140047e-02 
-6.4148600e-05 0.0000000e+00 -4.4525366e-03 
-1.0680180e-04 0.0000000e+00 -2.8088474e-03 
3.4513260e-04 0.0000000e+00 -6.0450544e-03 
1.3803532e-03 0.0000000e+00 -7.3230534e-03 
6.5829700e-05 0.0000000e+00 -1.1736922e-03 
2.9952540e-03 1.0000000e-02 5.7082181e-03 
8.8622628e-03 1.0000000e-02 -1.0562311e-02 
2.7142144e-03 0.0000000e+00 -8.2851896e-03 
5.0392030e-04 0.0000000e+00 6.5784910e-04 
4.1780764e-03 0.0000000e+00 -9.0342357e-03 
1.1628646e-03 0.0000000e+00 2.4220088e-03 
1.0466628e-02 1.0000000e-02 -1.0922252e-02 
4.1067238e-03 1.0000000e-02 7.2284501e-03 
5.7070961e-03 0.0000000e+00 -9.6390187e-03 
2.0046218e-03 0.0000000e+00 4.1066196e-03 
7.2731595e-03 0.0000000e+00 -1.0140047e-02 
1.2081579e-02 1.0000000e-02 -1.1231240e-02 
5.3166988e-03 1.0000000e-02 8.6715129e-03 
2.9952540e-03 0.0000000e+00 5.7082181e-03 
8.8622628e-03 0.0000000e+00 -1.0562311e-02 
1.3704120e-02 1.0000000e-02 -1.1497501e-02 
1.0466628e-02 0.0000000e+00 -1.0922252e-02 
4.1067238e-03 0.0000000e+00 7.2284501e-03 
6.6076374e-03 1.0000000e-02 1.0042624e-02 
1.5332244e-02 1.0000000e-02 -1.1727173e-02 
1.2081579e-02 0.0000000e+00 -1.1231240e-02 
5.3166988e-03 0.0000000e+00 8.6715129e-03 
7.9658343e-03 1.0000000e-02 1.1347144e-02 
1.3704120e-02 0.0000000e+00 -1.1497501e-02 
1.6964543e-02 1.0000000e-02 -1.1925002e-02 
6.6076374e-03 0.0000000e+00 1.0042624e-02 
9.3804686e-03 1.0000000e-02 1.2590236e-02 
1.5332244e-02 0.0000000e+00 -1.1727173e-02 
1.8600004e-02 1.0000000e-02 -1.2094716e-02 
7.9658343e-03 0.0000000e+00 1.1347144e-02 
1.6964543e-02 0.0000000e+00 -1.1925002e-02 
1.0843002e-02 1.0000000e-02 1.3776601e-02 
2.0237876e-02 1.0000000e-02 -1.2239318e-02 
9.3804686e-03 0.0000000e+00 1.2590236e-02 
1.8600004e-02 0.0000000e+00 -1.2094716e-02 
1.2346566e-02 1.0000000e-02 1.4910517e-02 
2.1877591e-02 1.0000000e-02 -1.2361246e-02 
1.0843002e-02 0.0000000e+00 1.3776601e-02 
2.0237876e-02 0.0000000e+00 -1.2239318e-02 
1.3885623e-02 1.0000000e-02 1.5995768e-02 
2.3518711e-02 1.0000000e-02 -1.2462540e-02 
1.2346566e-02 0.0000000e+00 1.4910517e-02 
2.1877591e-02 0.0000000e+00 -1.2361246e-02 
2.5160890e-02 1.0000000e-02 -1.2544903e-02 
1.5455654e-02 1.0000000e-02 1.7035707e-02 
1.3885623e-02 0.0000000e+00 1.5995768e-02 
2.3518711e-02 0.0000000e+00 -1.2462540e-02 
2.6803852e-02 1.0000000e-02 -1.2609772e-02 
1.7052912e-02 1.0000000e-02 1.8033321e-02 
2.5160890e-02 0.0000000e+00 -1.2544903e-02 
1.5455654e-02 0.0000000e+00 1.7035707e-02 
2.8447376e-02 1.0000000e-02 -1.2658389e-02 
2.6803852e-02 0.0000000e+00 -1.2609772e-02 
1.7052912e-02 0.0000000e+00 1.8033321e-02 
1.8674284e-02 1.0000000e-02 1.8991246e-02 
3.0091279e-02 1.0000000e-02 -1.2691814e-02 
2.8447376e-02 0.0000000e+00 -1.2658389e-02 
1.8674284e-02 0.0000000e+00 1.8991246e-02 
2.0317149e-02 1.0000000e-02 1.9911822e-02 
3.0091279e-02 0.0000000e+00 -1.2691814e-02 
3.1735410e-02 1.0000000e-02 -1.2710971e-02 
2.0317149e-02 0.0000000e+00 1.9911822e-02 
2.1979295e-02 1.0000000e-02 2.0797113e-02 
3.1735410e-02 0.0000000e+00 -1.2710971e-02 
3.3379643e-02 1.0000000e-02 -1.2716676e-02 
2.1979295e-02 0.0000000e+00 2.0797113e-02 
2.3658832e-02 1.0000000e-02 2.1648949e-02 
3.3379643e-02 0.0000000e+00 -1.2716676e-02 
3.5023871e-02 1.0000000e-02 -1.2709629e-02 
2.3658832e-02 0.0000000e+00 2.1648949e-02 
2.5354100e-02 1.0000000e-02 2.2469029e-02 
3.5023871e-02 0.0000000e+00 -1.2709629e-02 
3.6668001e-02 1.0000000e-02 -1.2690457e-02 
2.5354100e-02 0.0000000e+00 2.2469029e-02 
2.7063712e-02 1.0000000e-02 2.3258772e-02 
3.6668001e-02 0.0000000e+00 -1.2690457e-02 
3.8312016e-02 1.0000000e-02 -1.2663038e-02 
2.7063712e-02 0.0000000e+00 2.3258772e-02 
3.8312016e-02 0.0000000e+00 -1.2663038e-02 
2.8786417e-02 1.0000000e-02 2.4019532e-02 
3.9956032e-02 1.0000000e-02 -1.2635752e-02 
2.8786417e-02 0.0000000e+00 2.4019532e-02 
3.9956032e-02 0.0000000e+00 -1.2635752e-02 
3.0521135e-02 1.0000000e-02 2.4752486e-02 
4.1600048e-02 1.0000000e-02 -1.2608467e-02 
3.0521135e-02 0.0000000e+00 2.4752486e-02 
4.1600048e-02 0.0000000e+00 -1.2608467e-02 
3.2266919e-02 1.0000000e-02 2.5458676e-02 
4.3299814e-02 1.0000000e-02 -1.2580255e-02 
3.2266919e-02 0.0000000e+00 2.5458676e-02 
4.3299814e-02 0.0000000e+00 -1.2580255e-02 
3.4022902e-02 1.0000000e-02 2.6139111e-02 
4.5339533e-02 1.0000000e-02 -1.2546402e-02 
3.4022902e-02 0.0000000e+00 2.6139111e-02 
4.5339533e-02 0.0000000e+00 -1.2546402e-02 
3.5788340e-02 1.0000000e-02 2.6794623e-02 
4.7787196e-02 1.0000000e-02 -1.2505778e-02 
3.5788340e-02 0.0000000e+00 2.6794623e-02 
3.7562554e-02 1.0000000e-02 2.7425996e-02 
4.7787196e-02 0.0000000e+00 -1.2505778e-02 
3.7562554e-02 0.0000000e+00 2.7425996e-02 
3.9344928e-02 1.0000000e-02 2.8033950e-02 
5.0379113e-02 1.0000000e-02 -1.2462760e-02 
3.9344928e-02 0.0000000e+00 2.8033950e-02 
5.0379113e-02 0.0000000e+00 -1.2462760e-02 
4.1134916e-02 1.0000000e-02 2.8619109e-02 
5.2971029e-02 1.0000000e-02 -1.2419741e-02 
4.1134916e-02 0.0000000e+00 2.8619109e-02 
5.2971029e-02 0.0000000e+00 -1.2419741e-02 
4.2932026e-02 1.0000000e-02 2.9182016e-02 
4.2932026e-02 0.0000000e+00 2.9182016e-02 
5.5562946e-02 1.0000000e-02 -1.2376723e-02 
4.5339682e-02 1.0000000e-02 2.9899231e-02 
5.5562946e-02 0.0000000e+00 -1.2376723e-02 
4.5339682e-02 0.0000000e+00 2.9899231e-02 
5.8154863e-02 1.0000000e-02 -1.2333705e-02 
4.7758221e-02 1.0000000e-02 3.0578844e-02 
5.8154863e-02 0.0000000e+00 -1.2333705e-02 
4.7758221e-02 0.0000000e+00 3.0578844e-02 
6.0746779e-02 1.0000000e-02 -1.2290686e-02 
5.0186760e-02 1.0000000e-02 3.1221807e-02 
6.0746779e-02 0.0000000e+00 -1.2290686e-02 
5.0186760e-02 0.0000000e+00 3.1221807e-02 
6.3338696e-02 1.0000000e-02 -1.2247668e-02 
5.2624513e-02 1.0000000e-02 3.1828903e-02 
6.3338696e-02 0.0000000e+00 -1.2247668e-02 
5.2624513e-02 0.0000000e+00 3.1828903e-02 
5.5070762e-02 1.0000000e-02 3.2400804e-02 
6.5930613e-02 1.0000000e-02 -1.2204650e-02 
5.5070762e-02 0.0000000e+00 3.2400804e-02 
6.5930613e-02 0.0000000e+00 -1.2204650e-02 
5.7524847e-02 1.0000000e-02 3.2938082e-02 
6.8522529e-02 1.0000000e-02 -1.2161631e-02 
5.7524847e-02 0.0000000e+00 3.2938082e-02 
6.8522529e-02 0.0000000e+00 -1.2161631e-02 
5.9986169e-02 1.0000000e-02 3.3441170e-02 
7.1114446e-02 1.0000000e-02 -1.2118613e-02 
5.9986169e-02 0.0000000e+00 3.3441170e-02 
7.1114446e-02 0.0000000e+00 -1.2118613e-02 
6.2454163e-02 1.0000000e-02 3.3910436e-02 
6.2454163e-02 0.0000000e+00 3.3910436e-02 
7.3706362e-02 1.0000000e-02 -1.2075595e-02 
7.3706362e-02 0.0000000e+00 -1.2075595e-02 
6.4928303e-02 1.0000000e-02 3.4346139e-02 
6.4928303e-02 0.0000000e+00 3.4346139e-02 
7.6298279e-02 1.0000000e-02 -1.2032577e-02 
7.6298279e-02 0.0000000e+00 -1.2032577e-02 
6.7408092e-02 1.0000000e-02 3.4748446e-02 
6.7408092e-02 0.0000000e+00 3.4748446e-02 
7.8890196e-02 1.0000000e-02 -1.1989558e-02 
7.8890196e-02 0.0000000e+00 -1.1989558e-02 
6.9893057e-02 1.0000000e-02 3.5117436e-02 
6.9893057e-02 0.0000000e+00 3.5117436e-02 
8.1482112e-02 1.0000000e-02 -1.1946540e-02 
8.1482112e-02 0.0000000e+00 -1.1946540e-02 
7.2382742e-02 1.0000000e-02 3.5453098e-02 
7.2382742e-02 0.0000000e+00 3.5453098e-02 
8.4074029e-02 1.0000000e-02 -1.1903522e-02 
7.4876707e-02 1.0000000e-02 3.5755332e-02 
8.4074029e-02 0.0000000e+00 -1.1903522e-02 
7.4876707e-02 0.0000000e+00 3.5755332e-02 
8.6665946e-02 1.0000000e-02 -1.1860503e-02 
7.7374516e-02 1.0000000e-02 3.6023948e-02 
8.6665946e-02 0.0000000e+00 -1.1860503e-02 
7.7374516e-02 0.0000000e+00 3.6023948e-02 
8.9257862e-02 1.0000000e-02 -1.1817485e-02 
7.9875738e-02 1.0000000e-02 3.6258665e-02 
8.9257862e-02 0.0000000e+00 -1.1817485e-02 
7.9875738e-02 0.0000000e+00 3.6258665e-02 
8.2379940e-02 1.0000000e-02 3.6459105e-02 
9.1849779e-02 1.0000000e-02 -1.1774467e-02 
8.2379940e-02 0.0000000e+00 3.6459105e-02 
9.1849779e-02 0.0000000e+00 -1.1774467e-02 
8.4886681e-02 1.0000000e-02 3.6624786e-02 
9.4441696e-02 1.0000000e-02 -1.1731448e-02 
8.4886681e-02 0.0000000e+00 3.6624786e-02 
9.4441696e-02 0.0000000e+00 -1.1731448e-02 
8.7395510e-02 1.0000000e-02 3.6755108e-02 
8.7395510e-02 0.0000000e+00 3.6755108e-02 
9.7033612e-02 1.0000000e-02 -1.1688430e-02 
9.7033612e-02 0.0000000e+00 -1.1688430e-02 
8.9905951e-02 1.0000000e-02 3.6849401e-02 
8.9905951e-02 0.0000000e+00 3.6849401e-02 
9.9625529e-02 1.0000000e-02 -1.1645412e-02 
9.9625529e-02 0.0000000e+00 -1.1645412e-02 
9.2417505e-02 1.0000000e-02 3.6906832e-02 
9.2417505e-02 0.0000000e+00 3.6906832e-02 
1.0221745e-01 1.0000000e-02 -1.1602393e-02 
1.0221745e-01 0.0000000e+00 -1.1602393e-02 
9.4929640e-02 1.0000000e-02 3.6926425e-02 
9.4929640e-02 0.0000000e+00 3.6926425e-02 
1.0480936e-01 1.0000000e-02 -1.1559375e-02 
1.0480936e-01 0.0000000e+00 -1.1559375e-02 
9.7441776e-02 1.0000000e-02 3.6907077e-02 
9.7441776e-02 0.0000000e+00 3.6907077e-02 
1.0740128e-01 1.0000000e-02 -1.1516357e-02 
1.0740128e-01 0.0000000e+00 -1.1516357e-02 
9.9953281e-02 1.0000000e-02 3.6847529e-02 
9.9953281e-02 0.0000000e+00 3.6847529e-02 
1.0999320e-01 1.0000000e-02 -1.1473339e-02 
1.0246345e-01 1.0000000e-02 3.6746314e-02 
1.0999320e-01 0.0000000e+00 -1.1473339e-02 
1.0246345e-01 0.0000000e+00 3.6746314e-02 
1.0497150e-01 1.0000000e-02 3.6601738e-02 
1.1258511e-01 1.0000000e-02 -1.1430320e-02 
1.0497150e-01 0.0000000e+00 3.6601738e-02 
1.1258511e-01 0.0000000e+00 -1.1430320e-02 
1.0747666e-01 1.0000000e-02 3.6413638e-02 
1.1517703e-01 1.0000000e-02 -1.1387302e-02 
1.0747666e-01 0.0000000e+00 3.6413638e-02 
[...]
POINT_DATA 824
FIELD FieldData 2
DISPLACEMENT 3 824  float
0.0000000e+00 0.0000000e+00 0.0000000e+00 
0.0000000e+00 0.0000000e+00 0.0000000e+00 
0.0000000e+00 0.0000000e+00 0.0000000e+00 
0.0000000e+00 0.0000000e+00 0.0000000e+00 
0.0000000e+00 0.0000000e+00 0.0000000e+00 
0.0000000e+00 0.0000000e+00 0.0000000e+00 
0.0000000e+00 0.0000000e+00 0.0000000e+00 
0.0000000e+00 0.0000000e+00 0.0000000e+00 
0.0000000e+00 0.0000000e+00 0.0000000e+00 
0.0000000e+00 0.0000000e+00 0.0000000e+00 
0.0000000e+00 0.0000000e+00 0.0000000e+00 
0.0000000e+00 0.0000000e+00 0.0000000e+00 
0.0000000e+00 0.0000000e+00 0.0000000e+00 
0.0000000e+00 0.0000000e+00 0.0000000e+00 
0.0000000e+00 0.0000000e+00 0.0000000e+00 
0.0000000e+00 0.0000000e+00 0.0000000e+00 
0.0000000e+00 0.0000000e+00 0.0000000e+00 
0.0000000e+00 0.0000000e+00 0.0000000e+00 
0.0000000e+00 0.0000000e+00 0.0000000e+00 
0.0000000e+00 0.0000000e+00 0.0000000e+00 
0.0000000e+00 0.0000000e+00 0.0000000e+00 
0.0000000e+00 0.0000000e+00 0.0000000e+00 
0.0000000e+00 0.0000000e+00 0.0000000e+00 
0.0000000e+00 0.0000000e+00 0.0000000e+00 
0.0000000e+00 0.0000000e+00 0.0000000e+00 
0.0000000e+00 0.0000000e+00 0.0000000e+00 
0.0000000e+00 0.0000000e+00 0.0000000e+00 
0.0000000e+00 0.0000000e+00 0.0000000e+00 
0.0000000e+00 0.0000000e+00 0.0000000e+00 
0.0000000e+00 0.0000000e+00 0.0000000e+00 
0.0000000e+00 0.0000000e+00 0.0000000e+00 
0.0000000e+00 0.0000000e+00 0.0000000e+00 
0.0000000e+00 0.0000000e+00 0.0000000e+00 
0.0000000e+00 0.0000000e+00 0.0000000e+00 
0.0000000e+00 0.0000000e+00 0.0000000e+00 
0.0000000e+00 0.0000000e+00 0.0000000e+00 
0.0000000e+00 0.0000000e+00 0.0000000e+00 
0.0000000e+00 0.0000000e+00 0.0000000e+00 
0.0000000e+00 0.0000000e+00 0.0000000e+00 
0.0000000e+00 0.0000000e+00 0.0000000e+00 
0.0000000e+00 0.0000000e+00 0.0000000e+00 
0.0000000e+00 0.0000000e+00 0.0000000e+00 
0.0000000e+00 0.0000000e+00 0.0000000e+00 
0.0000000e+00 0.0000000e+00 0.0000000e+00 
0.0000000e+00 0.0000000e+00 0.0000000e+00 
0.0000000e+00 0.0000000e+00 0.0000000e+00 
0.0000000e+00 0.0000000e+00 0.0000000e+00 
0.0000000e+00 0.0000000e+00 0.0000000e+00 
0.0000000e+00 0.0000000e+00 0.0000000e+00 
0.0000000e+00 0.0000000e+00 0.0000000e+00 
0.0000000e+00 0.0000000e+00 0.0000000e+00 
0.0000000e+00 0.0000000e+00 0.0000000e+00 
0.0000000e+00 0.0000000e+00 0.0000000e+00 
0.0000000e+00 0.0000000e+00 0.0000000e+00 
0.0000000e+00 0.0000000e+00 0.0000000e+00 
0.0000000e+00 0.0000000e+00 0.0000000e+00 
0.0000000e+00 0.0000000e+00 0.0000000e+00 
0.0000000e+00 0.0000000e+00 0.0000000e+00 
0.0000000e+00 0.0000000e+00 0.0000000e+00 
0.0000000e+00 0.0000000e+00 0.0000000e+00 
0.0000000e+00 0.0000000e+00 0.0000000e+00 
0.0000000e+00 0.0000000e+00 0.0000000e+00 
0.0000000e+00 0.0000000e+00 0.0000000e+00 
0.0000000e+00 0.0000000e+00 0.0000000e+00 
0.0000000e+00 0.0000000e+00 0.0000000e+00 
0.0000000e+00 0.0000000e+00 0.0000000e+00 
0.0000000e+00 0.0000000e+00 0.0000000e+00 
0.0000000e+00 0.0000000e+00 0.0000000e+00 
0.0000000e+00 0.0000000e+00 0.0000000e+00 
0.0000000e+00 0.0000000e+00 0.0000000e+00 
0.0000000e+00 0.0000000e+00 0.0000000e+00 
0.0000000e+00 0.0000000e+00 0.0000000e+00 
0.0000000e+00 0.0000000e+00 0.0000000e+00 
0.0000000e+00 0.0000000e+00 0.0000000e+00 
0.0000000e+00 0.0000000e+00 0.0000000e+00 
0.0000000e+00 0.0000000e+00 0.0000000e+00 
0.0000000e+00 0.0000000e+00 0.0000000e+00 
0.0000000e+00 0.0000000e+00 0.0000000e+00 
0.0000000e+00 0.0000000e+00 0.0000000e+00 
0.0000000e+00 0.0000000e+00 0.0000000e+00 
0.0000000e+00 0.0000000e+00 0.0000000e+00 
0.0000000e+00 0.0000000e+00 0.0000000e+00 
0.0000000e+00 0.0000000e+00 0.0000000e+00 
0.0000000e+00 0.0000000e+00 0.0000000e+00 
0.0000000e+00 0.0000000e+00 0.0000000e+00 
0.0000000e+00 0.0000000e+00 0.0000000e+00 
0.0000000e+00 0.0000000e+00 0.0000000e+00 
0.0000000e+00 0.0000000e+00 0.0000000e+00 
0.0000000e+00 0.0000000e+00 0.0000000e+00 
0.0000000e+00 0.0000000e+00 0.0000000e+00 
0.0000000e+00 0.0000000e+00 0.0000000e+00 
0.0000000e+00 0.0000000e+00 0.0000000e+00 
0.0000000e+00 0.0000000e+00 0.0000000e+00 
0.0000000e+00 0.0000000e+00 0.0000000e+00 
0.0000000e+00 0.0000000e+00 0.0000000e+00 
0.0000000e+00 0.0000000e+00 0.0000000e+00 
0.0000000e+00 0.0000000e+00 0.0000000e+00 
-3.3710182e-05 0.0000000e+00 3.7515471e-04 
0.0000000e+00 0.0000000e+00 0.0000000e+00 
-3.3710182e-05 0.0000000e+00 3.7515471e-04 
0.0000000e+00 0.0000000e+00 0.0000000e+00 
-6.7155573e-05 0.0000000e+00 7.4923777e-04 
0.0000000e+00 0.0000000e+00 0.0000000e+00 
-6.7155573e-05 0.0000000e+00 7.4923777e-04 
0.0000000e+00 0.0000000e+00 0.0000000e+00 
-1.0142383e-04 0.0000000e+00 1.1347421e-03 
0.0000000e+00 0.0000000e+00 0.0000000e+00 
-1.0142383e-04 0.0000000e+00 1.1347421e-03 
0.0000000e+00 0.0000000e+00 0.0000000e+00 
-1.4208266e-04 0.0000000e+00 1.5954668e-03 
0.0000000e+00 0.0000000e+00 0.0000000e+00 
-1.4208266e-04 0.0000000e+00 1.5954668e-03 
0.0000000e+00 0.0000000e+00 0.0000000e+00 
-1.9015126e-04 0.0000000e+00 2.1453963e-03 
0.0000000e+00 0.0000000e+00 0.0000000e+00 
0.0000000e+00 0.0000000e+00 0.0000000e+00 
-1.9015126e-04 0.0000000e+00 2.1453963e-03 
0.0000000e+00 0.0000000e+00 0.0000000e+00 
0.0000000e+00 0.0000000e+00 0.0000000e+00 
-2.4010296e-04 0.0000000e+00 2.7238555e-03 
0.0000000e+00 0.0000000e+00 0.0000000e+00 
-2.4010296e-04 0.0000000e+00 2.7238555e-03 
0.0000000e+00 0.0000000e+00 0.0000000e+00 
-2.8897063e-04 0.0000000e+00 3.2978600e-03 
0.0000000e+00 0.0000000e+00 0.0000000e+00 
-2.8897063e-04 0.0000000e+00 3.2978600e-03 
0.0000000e+00 0.0000000e+00 0.0000000e+00 
0.0000000e+00 0.0000000e+00 0.0000000e+00 
-3.3665218e-04 0.0000000e+00 3.8669605e-03 
0.0000000e+00 0.0000000e+00 0.0000000e+00 
-3.3665218e-04 0.0000000e+00 3.8669605e-03 
0.0000000e+00 0.0000000e+00 0.0000000e+00 
-3.8304320e-04 0.0000000e+00 4.4306674e-03 
0.0000000e+00 0.0000000e+00 0.0000000e+00 
-3.8304320e-04 0.0000000e+00 4.4306674e-03 
0.0000000e+00 0.0000000e+00 0.0000000e+00 
-4.2809117e-04 0.0000000e+00 4.9886968e-03 
0.0000000e+00 0.0000000e+00 0.0000000e+00 
-4.2809117e-04 0.0000000e+00 4.9886968e-03 
0.0000000e+00 0.0000000e+00 0.0000000e+00 
-4.7180010e-04 0.0000000e+00 5.5410176e-03 
0.0000000e+00 0.0000000e+00 0.0000000e+00 
-4.7180010e-04 0.0000000e+00 5.5410176e-03 
0.0000000e+00 0.0000000e+00 0.0000000e+00 
0.0000000e+00 0.0000000e+00 0.0000000e+00 
-5.1414511e-04 0.0000000e+00 6.0874698e-03 
0.0000000e+00 0.0000000e+00 0.0000000e+00 
-5.1414511e-04 0.0000000e+00 6.0874698e-03 
0.0000000e+00 0.0000000e+00 0.0000000e+00 
-5.5507850e-04 0.0000000e+00 6.6277707e-03 
0.0000000e+00 0.0000000e+00 0.0000000e+00 
-5.5507850e-04 0.0000000e+00 6.6277707e-03 
0.0000000e+00 0.0000000e+00 0.0000000e+00 
-5.9459194e-04 0.0000000e+00 7.1618065e-03 
0.0000000e+00 0.0000000e+00 0.0000000e+00 
-5.9459194e-04 0.0000000e+00 7.1618065e-03 
0.0000000e+00 0.0000000e+00 0.0000000e+00 
0.0000000e+00 0.0000000e+00 0.0000000e+00 
-6.3271115e-04 0.0000000e+00 7.6896278e-03 
-6.3271115e-04 0.0000000e+00 7.6896278e-03 
0.0000000e+00 0.0000000e+00 0.0000000e+00 
0.0000000e+00 0.0000000e+00 0.0000000e+00 
-6.6943455e-04 0.0000000e+00 8.2111653e-03 
-6.6943455e-04 0.0000000e+00 8.2111653e-03 
0.0000000e+00 0.0000000e+00 0.0000000e+00 
0.0000000e+00 0.0000000e+00 0.0000000e+00 
-7.0472500e-04 0.0000000e+00 8.7261617e-03 
-7.0472500e-04 0.0000000e+00 8.7261617e-03 
0.0000000e+00 0.0000000e+00 0.0000000e+00 
0.0000000e+00 0.0000000e+00 0.0000000e+00 
-7.3857742e-04 0.0000000e+00 9.2345033e-03 
-7.3857742e-04 0.0000000e+00 9.2345033e-03 
0.0000000e+00 0.0000000e+00 0.0000000e+00 
0.0000000e+00 0.0000000e+00 0.0000000e+00 
-7.7102733e-04 0.0000000e+00 9.7362835e-03 
0.0000000e+00 0.0000000e+00 0.0000000e+00 
-7.7102733e-04 0.0000000e+00 9.7362835e-03 
0.0000000e+00 0.0000000e+00 0.0000000e+00 
-8.0208070e-04 0.0000000e+00 1.0231459e-02 
0.0000000e+00 0.0000000e+00 0.0000000e+00 
-8.0208070e-04 0.0000000e+00 1.0231459e-02 
0.0000000e+00 0.0000000e+00 0.0000000e+00 
-8.3171577e-04 0.0000000e+00 1.0719825e-02 
0.0000000e+00 0.0000000e+00 0.0000000e+00 
-8.3171577e-04 0.0000000e+00 1.0719825e-02 
0.0000000e+00 0.0000000e+00 0.0000000e+00 
0.0000000e+00 0.0000000e+00 0.0000000e+00 
-8.5994485e-04 0.0000000e+00 1.1201337e-02 
0.0000000e+00 0.0000000e+00 0.0000000e+00 
-8.5994485e-04 0.0000000e+00 1.1201337e-02 
0.0000000e+00 0.0000000e+00 0.0000000e+00 
-8.8681184e-04 0.0000000e+00 1.1676131e-02 
0.0000000e+00 0.0000000e+00 0.0000000e+00 
-8.8681184e-04 0.0000000e+00 1.1676131e-02 
0.0000000e+00 0.0000000e+00 0.0000000e+00 
0.0000000e+00 0.0000000e+00 0.0000000e+00 
-9.1233012e-04 0.0000000e+00 1.2144201e-02 
-9.1233012e-04 0.0000000e+00 1.2144201e-02 
0.0000000e+00 0.0000000e+00 0.0000000e+00 
0.0000000e+00 0.0000000e+00 0.0000000e+00 
-9.3647487e-04 0.0000000e+00 1.2605314e-02 
-9.3647487e-04 0.0000000e+00 1.2605314e-02 
0.0000000e+00 0.0000000e+00 0.0000000e+00 
0.0000000e+00 0.0000000e+00 0.0000000e+00 
-9.5925100e-04 0.0000000e+00 1.3059380e-02 
-9.5925100e-04 0.0000000e+00 1.3059380e-02 
0.0000000e+00 0.0000000e+00 0.0000000e+00 
0.0000000e+00 0.0000000e+00 0.0000000e+00 
-9.8069966e-04 0.0000000e+00 1.3506529e-02 
-9.8069966e-04 0.0000000e+00 1.3506529e-02 
0.0000000e+00 0.0000000e+00 0.0000000e+00 
0.0000000e+00 0.0000000e+00 0.0000000e+00 
-1.0008320e-03 0.0000000e+00 1.3946738e-02 
-1.0008320e-03 0.0000000e+00 1.3946738e-02 
0.0000000e+00 0.0000000e+00 0.0000000e+00 
0.0000000e+00 0.0000000e+00 0.0000000e+00 
-1.0196335e-03 0.0000000e+00 1.4379808e-02 
0.0000000e+00 0.0000000e+00 0.0000000e+00 
-1.0196335e-03 0.0000000e+00 1.4379808e-02 
0.0000000e+00 0.0000000e+00 0.0000000e+00 
-5.0263700e-05 0.0000000e+00 8.7105155e-04 
-1.0371199e-03 0.0000000e+00 1.4805695e-02 
-5.0263700e-05 0.0000000e+00 8.7105155e-04 
-1.0371199e-03 0.0000000e+00 1.4805695e-02 
-9.6075916e-05 0.0000000e+00 1.7802635e-03 
-1.0533320e-03 0.0000000e+00 1.5224535e-02 
-9.6075916e-05 0.0000000e+00 1.7802635e-03 
-1.0533320e-03 0.0000000e+00 1.5224535e-02 
-1.3915490e-04 0.0000000e+00 2.6956313e-03 
-1.3915490e-04 0.0000000e+00 2.6956313e-03 
-1.0682828e-03 0.0000000e+00 1.5636306e-02 
-1.0682828e-03 0.0000000e+00 1.5636306e-02 
-1.8034562e-04 0.0000000e+00 3.6044118e-03 
-1.8034562e-04 0.0000000e+00 3.6044118e-03 
-1.0819561e-03 0.0000000e+00 1.6040787e-02 
-1.0819561e-03 0.0000000e+00 1.6040787e-02 
-2.1962926e-04 0.0000000e+00 4.5064964e-03 
-2.1962926e-04 0.0000000e+00 4.5064964e-03 
-1.0943598e-03 0.0000000e+00 1.6437892e-02 
-1.0943598e-03 0.0000000e+00 1.6437892e-02 
-2.5688844e-04 0.0000000e+00 5.4014335e-03 
-2.5688844e-04 0.0000000e+00 5.4014335e-03 
-1.1055268e-03 0.0000000e+00 1.6827704e-02 
-1.1055268e-03 0.0000000e+00 1.6827704e-02 
-2.9193312e-04 0.0000000e+00 6.2884540e-03 
-2.9193312e-04 0.0000000e+00 6.2884540e-03 
-1.1154677e-03 0.0000000e+00 1.7210175e-02 
-1.1154677e-03 0.0000000e+00 1.7210175e-02 
-3.2461714e-04 0.0000000e+00 7.1669312e-03 
-3.2461714e-04 0.0000000e+00 7.1669312e-03 
-1.1241781e-03 0.0000000e+00 1.7585138e-02 
-3.5483472e-04 0.0000000e+00 8.0363478e-03 
-1.1241781e-03 0.0000000e+00 1.7585138e-02 
-3.5483472e-04 0.0000000e+00 8.0363478e-03 
-3.8249644e-04 0.0000000e+00 8.8962353e-03 
-1.1316759e-03 0.0000000e+00 1.7952546e-02 
-3.8249644e-04 0.0000000e+00 8.8962353e-03 
-1.1316759e-03 0.0000000e+00 1.7952546e-02 
-4.0753935e-04 0.0000000e+00 9.7461968e-03 
-1.1379930e-03 0.0000000e+00 1.8312474e-02 
-4.0753935e-04 0.0000000e+00 9.7461968e-03 
-1.1379930e-03 0.0000000e+00 1.8312474e-02 
-4.2992921e-04 0.0000000e+00 1.0585925e-02 
-4.2992921e-04 0.0000000e+00 1.0585925e-02 
-1.1431439e-03 0.0000000e+00 1.8664890e-02 
-1.1431439e-03 0.0000000e+00 1.8664890e-02 
-4.4966065e-04 0.0000000e+00 1.1415236e-02 
-4.4966065e-04 0.0000000e+00 1.1415236e-02 
-1.1471263e-03 0.0000000e+00 1.9009622e-02 
-1.1471263e-03 0.0000000e+00 1.9009622e-02 
-4.6670888e-04 0.0000000e+00 1.2233845e-02 
-4.6670888e-04 0.0000000e+00 1.2233845e-02 
-1.1499538e-03 0.0000000e+00 1.9346589e-02 
-1.1499538e-03 0.0000000e+00 1.9346589e-02 
-4.8103100e-04 0.0000000e+00 1.3041375e-02 
-4.8103100e-04 0.0000000e+00 1.3041375e-02 
-1.1516548e-03 0.0000000e+00 1.9675840e-02 
-1.1516548e-03 0.0000000e+00 1.9675840e-02 
-4.9261537e-04 0.0000000e+00 1.3837548e-02 
-4.9261537e-04 0.0000000e+00 1.3837548e-02 
-1.1522446e-03 0.0000000e+00 1.9997333e-02 
-1.1522446e-03 0.0000000e+00 1.9997333e-02 
-5.0146464e-04 0.0000000e+00 1.4622150e-02 
-5.0146464e-04 0.0000000e+00 1.4622150e-02 
-1.1517318e-03 0.0000000e+00 2.0310943e-02 
-1.1517318e-03 0.0000000e+00 2.0310943e-02 
-5.0757284e-04 0.0000000e+00 1.5394913e-02 
-5.0757284e-04 0.0000000e+00 1.5394913e-02 
-1.1501379e-03 0.0000000e+00 2.0616636e-02 
-1.1501379e-03 0.0000000e+00 2.0616636e-02 
-5.1093914e-04 0.0000000e+00 1.6155561e-02 
-5.1093914e-04 0.0000000e+00 1.6155561e-02 
-1.1474918e-03 0.0000000e+00 2.0914459e-02 
-5.1158481e-04 0.0000000e+00 1.6903912e-02 
-1.1474918e-03 0.0000000e+00 2.0914459e-02 
-5.1158481e-04 0.0000000e+00 1.6903912e-02 
-1.1438133e-03 0.0000000e+00 2.1204386e-02 
-5.0954844e-04 0.0000000e+00 1.7639852e-02 
-1.1438133e-03 0.0000000e+00 2.1204386e-02 
-5.0954844e-04 0.0000000e+00 1.7639852e-02 
-5.0485284e-04 0.0000000e+00 1.8363201e-02 
-1.1391131e-03 0.0000000e+00 2.1486303e-02 
-5.0485284e-04 0.0000000e+00 1.8363201e-02 
-1.1391131e-03 0.0000000e+00 2.1486303e-02 
-4.9751051e-04 0.0000000e+00 1.9073687e-02 
-4.9751051e-04 0.0000000e+00 1.9073687e-02 
-1.1334103e-03 0.0000000e+00 2.1760148e-02 
-1.1334103e-03 0.0000000e+00 2.1760148e-02 
-4.8755120e-04 0.0000000e+00 1.9771114e-02 
-4.8755120e-04 0.0000000e+00 1.9771114e-02 
-1.1267323e-03 0.0000000e+00 2.2025949e-02 
-1.1267323e-03 0.0000000e+00 2.2025949e-02 
-4.7500937e-04 0.0000000e+00 2.0455299e-02 
-4.7500937e-04 0.0000000e+00 2.0455299e-02 
-1.1191003e-03 0.0000000e+00 2.2283686e-02 
-1.1191003e-03 0.0000000e+00 2.2283686e-02 
-4.5991748e-04 0.0000000e+00 2.1126032e-02 
-4.5991748e-04 0.0000000e+00 2.1126032e-02 
-1.1105325e-03 0.0000000e+00 2.2533280e-02 
-1.1105325e-03 0.0000000e+00 2.2533280e-02 
-4.4231779e-04 0.0000000e+00 2.1783138e-02 
-4.4231779e-04 0.0000000e+00 2.1783138e-02 
-1.1010537e-03 0.0000000e+00 2.2774709e-02 
-1.1010537e-03 0.0000000e+00 2.2774709e-02 
-4.2226072e-04 0.0000000e+00 2.2426467e-02 
-4.2226072e-04 0.0000000e+00 2.2426467e-02 
-1.0906918e-03 0.0000000e+00 2.3008002e-02 
-1.0906918e-03 0.0000000e+00 2.3008002e-02 
-3.9980218e-04 0.0000000e+00 2.3055906e-02 
-3.9980218e-04 0.0000000e+00 2.3055906e-02 
-1.0794705e-03 0.0000000e+00 2.3233149e-02 
-1.0794705e-03 0.0000000e+00 2.3233149e-02 
-3.7499518e-04 0.0000000e+00 2.3671301e-02 
-3.7499518e-04 0.0000000e+00 2.3671301e-02 
-1.0674095e-03 0.0000000e+00 2.3450081e-02 
-1.0674095e-03 0.0000000e+00 2.3450081e-02 
-3.4789259e-04 0.0000000e+00 2.4272487e-02 
-3.4789259e-04 0.0000000e+00 2.4272487e-02 
-1.0545321e-03 0.0000000e+00 2.3658762e-02 
-1.0545321e-03 0.0000000e+00 2.3658762e-02 
-3.1855186e-04 0.0000000e+00 2.4859309e-02 
-3.1855186e-04 0.0000000e+00 2.4859309e-02 
-1.0408652e-03 0.0000000e+00 2.3859204e-02 
-1.0408652e-03 0.0000000e+00 2.3859204e-02 
-2.8702869e-04 0.0000000e+00 2.5431577e-02 
-2.8702869e-04 0.0000000e+00 2.5431577e-02 
-1.0264333e-03 0.0000000e+00 2.4051394e-02 
-1.0264333e-03 0.0000000e+00 2.4051394e-02 
-2.5338595e-04 0.0000000e+00 2.5989131e-02 
-2.5338595e-04 0.0000000e+00 2.5989131e-02 
-1.0112597e-03 0.0000000e+00 2.4235291e-02 
-2.1769766e-04 0.0000000e+00 2.6531882e-02 
-1.0112597e-03 0.0000000e+00 2.4235291e-02 
-2.1769766e-04 0.0000000e+00 2.6531882e-02 
-1.8003595e-04 0.0000000e+00 2.7059719e-02 
-9.9537114e-04 0.0000000e+00 2.4410882e-02 
-1.8003595e-04 0.0000000e+00 2.7059719e-02 
-9.9537114e-04 0.0000000e+00 2.4410882e-02 
-1.4047183e-04 0.0000000e+00 2.7572493e-02 
-9.7879480e-04 0.0000000e+00 2.4578177e-02 
-1.4047183e-04 0.0000000e+00 2.7572493e-02 
-9.7879480e-04 0.0000000e+00 2.4578177e-02 
-9.9082187e-05 0.0000000e+00 2.8070091e-02 
-9.9082187e-05 0.0000000e+00 2.8070091e-02 
-9.6155622e-04 0.0000000e+00 2.4737172e-02 
-9.6155622e-04 0.0000000e+00 2.4737172e-02 
-5.5949375e-05 0.0000000e+00 2.8552444e-02 
-5.5949375e-05 0.0000000e+00 2.8552444e-02 
-9.4368008e-04 0.0000000e+00 2.4887835e-02 
-9.4368008e-04 0.0000000e+00 2.4887835e-02 
-1.1151750e-05 0.0000000e+00 2.9019431e-02 
-1.1151750e-05 0.0000000e+00 2.9019431e-02 
-9.2519220e-04 0.0000000e+00 2.5030150e-02 
-9.2519220e-04 0.0000000e+00 2.5030150e-02 
3.5235547e-05 0.0000000e+00 2.9470856e-02 
3.5235547e-05 0.0000000e+00 2.9470856e-02 
-9.0611924e-04 0.0000000e+00 2.5164116e-02 
-9.0611924e-04 0.0000000e+00 2.5164116e-02 
8.3127050e-05 0.0000000e+00 2.9906593e-02 
8.3127050e-05 0.0000000e+00 2.9906593e-02 
-8.8648721e-04 0.0000000e+00 2.5289719e-02 
-8.8648721e-04 0.0000000e+00 2.5289719e-02 
1.3242878e-04 0.0000000e+00 3.0326627e-02 
1.3242878e-04 0.0000000e+00 3.0326627e-02 
-8.6632235e-04 0.0000000e+00 2.5406946e-02 
-8.6632235e-04 0.0000000e+00 2.5406946e-02 
1.8305341e-04 0.0000000e+00 3.0730854e-02 
1.8305341e-04 0.0000000e+00 3.0730854e-02 
-8.4565203e-04 0.0000000e+00 2.5515794e-02 
-8.4565203e-04 0.0000000e+00 2.5515794e-02 
2.3491440e-04 0.0000000e+00 3.1119076e-02 
2.3491440e-04 0.0000000e+00 3.1119076e-02 
-8.2450344e-04 0.0000000e+00 2.5616263e-02 
-8.2450344e-04 0.0000000e+00 2.5616263e-02 
2.8791109e-04 0.0000000e+00 3.1491230e-02 
2.8791109e-04 0.0000000e+00 3.1491230e-02 
-8.0290333e-04 0.0000000e+00 2.5708349e-02 
-8.0290333e-04 0.0000000e+00 2.5708349e-02 
3.4193753e-04 0.0000000e+00 3.1847430e-02 
3.4193753e-04 0.0000000e+00 3.1847430e-02 
-7.8087881e-04 0.0000000e+00 2.5792051e-02 
-7.8087881e-04 0.0000000e+00 2.5792051e-02 
3.9689726e-04 0.0000000e+00 3.2187646e-02 
3.9689726e-04 0.0000000e+00 3.2187646e-02 
-7.5845714e-04 0.0000000e+00 2.5867370e-02 
-7.5845714e-04 0.0000000e+00 2.5867370e-02 
4.5268947e-04 0.0000000e+00 3.2511729e-02 
4.5268947e-04 0.0000000e+00 3.2511729e-02 
-7.3566536e-04 0.0000000e+00 2.5934305e-02 
-7.3566536e-04 0.0000000e+00 2.5934305e-02 
5.0919920e-04 0.0000000e+00 3.2819818e-02 
5.0919920e-04 0.0000000e+00 3.2819818e-02 
-7.1253097e-04 0.0000000e+00 2.5992856e-02 
-7.1253097e-04 0.0000000e+00 2.5992856e-02 
5.6603680e-04 0.0000000e+00 3.3110900e-02 
5.6603680e-04 0.0000000e+00 3.3110900e-02 
-6.8901151e-04 0.0000000e+00 2.6043182e-02 
-6.8901151e-04 0.0000000e+00 2.6043182e-02 
6.3490083e-04 0.0000000e+00 3.3440072e-02 
6.3490083e-04 0.0000000e+00 3.3440072e-02 
-6.6040849e-04 0.0000000e+00 2.6092482e-02 
-6.6040849e-04 0.0000000e+00 2.6092482e-02 
7.1827964e-04 0.0000000e+00 3.3806284e-02 
7.1827964e-04 0.0000000e+00 3.3806284e-02 
-6.2560178e-04 0.0000000e+00 2.6135693e-02 
-6.2560178e-04 0.0000000e+00 2.6135693e-02 
8.1905573e-04 0.0000000e+00 3.4204615e-02 
8.1905573e-04 0.0000000e+00 3.4204615e-02 
-5.8367847e-04 0.0000000e+00 2.6164562e-02 
-5.8367847e-04 0.0000000e+00 2.6164562e-02 
9.2564026e-04 0.0000000e+00 3.4575822e-02 
9.2564026e-04 0.0000000e+00 3.4575822e-02 
-5.4125084e-04 0.0000000e+00 2.6169063e-02 
-5.4125084e-04 0.0000000e+00 2.6169063e-02 
1.0321010e-03 0.0000000e+00 3.4896755e-02 
1.0321010e-03 0.0000000e+00 3.4896755e-02 
-4.9845361e-04 0.0000000e+00 2.6149096e-02 
-4.9845361e-04 0.0000000e+00 2.6149096e-02 
1.1378904e-03 0.0000000e+00 3.5167105e-02 
1.1378904e-03 0.0000000e+00 3.5167105e-02 
-4.5541972e-04 0.0000000e+00 2.6104761e-02 
-4.5541972e-04 0.0000000e+00 2.6104761e-02 
1.2424550e-03 0.0000000e+00 3.5386860e-02 
1.2424550e-03 0.0000000e+00 3.5386860e-02 
-4.1228097e-04 0.0000000e+00 2.6036081e-02 
-4.1228097e-04 0.0000000e+00 2.6036081e-02 
1.3452455e-03 0.0000000e+00 3.5556133e-02 
1.3452455e-03 0.0000000e+00 3.5556133e-02 
-3.6917529e-04 0.0000000e+00 2.5943003e-02 
-3.6917529e-04 0.0000000e+00 2.5943003e-02 
1.4457268e-03 0.0000000e+00 3.5675270e-02 
1.4457268e-03 0.0000000e+00 3.5675270e-02 
-3.2623027e-04 0.0000000e+00 2.5825774e-02 
-3.2623027e-04 0.0000000e+00 2.5825774e-02 
1.5433830e-03 0.0000000e+00 3.5744756e-02 
1.5433830e-03 0.0000000e+00 3.5744756e-02 
-2.8357237e-04 0.0000000e+00 2.5684496e-02 