# vtk DataFile Version 4.0
vtk output
ASCII
DATASET UNSTRUCTURED_GRID
POINTS 824 float
-6.4148600e-05 1.0000000e-02 -4.4525366e-03 
-1.0680180e-04 1.0000000e-02 -2.8088474e-03 
3.4513260e-04 1.0000000e-02 -6.0450544e-03 
1.3803532e-03 1.0000000e-02 -7.3230534e-03 
6.5829700e-05 1.0000000e-02 -1.1736922e-03 
2.7142144e-03 1.0000000e-02 -8.2851896e-03 
5.0392030e-04 1.0000000e-02 6.5784910e-04 
4.1780764e-03 1.0000000e-02 -9.0342357e-03 
1.1628646e-03 1.0000000e-02 2.4220088e-03 
5.7070961e-03 1.0000000e-02 -9.6390187e-03 
2.0046218e-03 1.0000000e-02 4.1066196e-03 
7.2731595e-03 1.0000000e-02 -1.0140047e-02 
-6.4148600e-05 0.0000000e+00 -4.4525366e-03 
-1.0680180e-04 0.0000000e+00 -2.8088474e-03 
3.4513260e-04 0.0000000e+00 -6.0450544e-03 
1.3803532e-03 0.0000000e+00 -7.3230534e-03 
6.5829700e-05 0.0000000e+00 -1.1736922e-03 
2.9952540e-03 1.0000000e-02 5.7082181e-03 
8.8622628e-03 1.0000000e-02 -1.0562311e-02 
2.7142144e-03 0.0000000e+00 -8.2851896e-03 
5.0392030e-04 0.0000000e+00 6.5784910e-04 
4.1780764e-03 0.0000000e+00 -9.0342357e-03 
1.1628646e-03 0.0000000e+00 2.4220088e-03 
1.0466628e-02 1.0000000e-02 -1.0922252e-02 
4.1067238e-03 1.0000000e-02 7.2284501e-03 
5.7070961e-03 0.0000000e+00 -9.6390187e-03 
2.0046218e-03 0.0000000e+00 4.1066196e-03 
7.2731595e-03 0.0000000e+00 -1.0140047e-02 
1.2081579e-02 1.0000000e-02 -1.1231240e-02 
5.3166988e-03 1.0000000e-02 8.6715129e-03 
2.9952540e-03 0.0000000e+00 5.7082181e-03 
8.8622628e-03 0.0000000e+00 -1.0562311e-02 
1.3704120e-02 1.0000000e-02 -1.1497501e-02 
1.0466628e-02 0.0000000e+00 -1.0922252e-02 
4.1067238e-03 0.0000000e+00 7.2284501e-03 
6.6076374e-03 1.0000000e-02 1.0042624e-02 
1.5332244e-02 1.0000000e-02 -1.1727173e-02 
1.2081579e-02 0.0000000e+00 -1.1231240e-02 
5.3166988e-03 0.0000000e+00 8.6715129e-03 
7.9658343e-03 1.0000000e-02 1.1347144e-02 
1.3704120e-02 0.0000000e+00 -1.1497501e-02 
1.6964543e-02 1.0000000e-02 -1.1925002e-02 
6.6076374e-03 0.0000000e+00 1.0042624e-02 
9.3804686e-03 1.0000000e-02 1.2590236e-02 
1.5332244e-02 0.0000000e+00 -1.1727173e-02 
1.8600004e-02 1.0000000e-02 -1.2094716e-02 
7.9658343e-03 0.0000000e+00 1.1347144e-02 
1.6964543e-02 0.0000000e+00 -1.1925002e-02 
1.0843002e-02 1.0000000e-02 1.3776601e-02 
2.0237876e-02 1.0000000e-02 -1.2239318e-02 
9.3804686e-03 0.0000000e+00 1.2590236e-02 
1.8600004e-02 0.0000000e+00 -1.2094716e-02 
1.2346566e-02 1.0000000e-02 1.4910517e-02 
2.1877591e-02 1.0000000e-02 -1.2361246e-02 
1.0843002e-02 0.0000000e+00 1.3776601e-02 
2.0237876e-02 0.0000000e+00 -1.2239318e-02 
1.3885623e-02 1.0000000e-02 1.5995768e-02 
2.3518711e-02 1.0000000e-02 -1.2462540e-02 
1.2346566e-02 0.0000000e+00 1.4910517e-02 
2.1877591e-02 0.0000000e+00 -1.2361246e-02 
2.5160890e-02 1.0000000e-02 -1.2544903e-02 
1.5455654e-02 1.0000000e-02 1.7035707e-02 
1.3885623e-02 0.0000000e+00 1.5995768e-02 
2.3518711e-02 0.0000000e+00 -1.2462540e-02 
2.6803852e-02 1.0000000e-02 -1.2609772e-02 
1.7052912e-02 1.0000000e-02 1.8033321e-02 
2.5160890e-02 0.0000000e+00 -1.2544903e-02 
1.5455654e-02 0.0000000e+00 1.7035707e-02 
2.8447376e-02 1.0000000e-02 -1.2658389e-02 
2.6803852e-02 0.0000000e+00 -1.2609772e-02 
1.7052912e-02 0.0000000e+00 1.8033321e-02 
1.8674284e-02 1.0000000e-02 1.8991246e-02 
3.0091279e-02 1.0000000e-02 -1.2691814e-02 
2.8447376e-02 0.0000000e+00 -1.2658389e-02 
1.8674284e-02 0.0000000e+00 1.8991246e-02 
2.0317149e-02 1.0000000e-02 1.9911822e-02 
3.0091279e-02 0.0000000e+00 -1.2691814e-02 
3.1735410e-02 1.0000000e-02 -1.2710971e-02 
2.0317149e-02 0.0000000e+00 1.9911822e-02 
2.1979295e-02 1.0000000e-02 2.0797113e-02 
3.1735410e-02 0.0000000e+00 -1.2710971e-02 
3.3379643e-02 1.0000000e-02 -1.2716676e-02 
2.1979295e-02 0.0000000e+00 2.0797113e-02 
2.3658832e-02 1.0000000e-02 2.1648949e-02 
3.3379643e-02 0.0000000e+00 -1.2716676e-02 
3.5023871e-02 1.0000000e-02 -1.2709629e-02 
2.3658832e-02 0.0000000e+00 2.1648949e-02 
2.5354100e-02 1.0000000e-02 2.2469029e-02 
3.5023871e-02 0.0000000e+00 -1.2709629e-02 
3.6668001e-02 1.0000000e-02 -1.2690457e-02 
2.5354100e-02 0.0000000e+00 2.2469029e-02 
2.7063712e-02 1.0000000e-02 2.3258772e-02 
3.6668001e-02 0.0000000e+00 -1.2690457e-02 
3.8312016e-02 1.0000000e-02 -1.2663038e-02 
2.7063712e-02 0.0000000e+00 2.3258772e-02 
3.8312016e-02 0.0000000e+00 -1.2663038e-02 
2.8786417e-02 1.0000000e-02 2.4019532e-02 
3.9956032e-02 1.0000000e-02 -1.2635752e-02 
2.8786417e-02 0.0000000e+00 2.4019532e-02 
3.9956032e-02 0.0000000e+00 -1.2635752e-02 
3.0521135e-02 1.0000000e-02 2.4752486e-02 
4.1600048e-02 1.0000000e-02 -1.2608467e-02 
3.0521135e-02 0.0000000e+00 2.4752486e-02 
4.1600048e-02 0.0000000e+00 -1.2608467e-02 
3.2266919e-02 1.0000000e-02 2.5458676e-02 
4.3299814e-02 1.0000000e-02 -1.2580255e-02 
3.2266919e-02 0.0000000e+00 2.5458676e-02 
4.3299814e-02 0.0000000e+00 -1.2580255e-02 
3.4022902e-02 1.0000000e-02 2.6139111e-02 
4.5339533e-02 1.0000000e-02 -1.2546402e-02 
3.4022902e-02 0.0000000e+00 2.6139111e-02 
4.5339533e-02 0.0000000e+00 -1.2546402e-02 
3.5788340e-02 1.0000000e-02 2.6794623e-02 
4.7787196e-02 1.0000000e-02 -1.2505778e-02 
3.5788340e-02 0.0000000e+00 2.6794623e-02 
3.7562554e-02 1.0000000e-02 2.7425996e-02 
4.7787196e-02 0.0000000e+00 -1.2505778e-02 
3.7562554e-02 0.0000000e+00 2.7425996e-02 
3.9344928e-02 1.0000000e-02 2.8033950e-02 
5.0379113e-02 1.0000000e-02 -1.2462760e-02 
3.9344928e-02 0.0000000e+00 2.8033950e-02 
5.0379113e-02 0.0000000e+00 -1.2462760e-02 
4.1134916e-02 1.0000000e-02 2.8619109e-02 
5.2971029e-02 1.0000000e-02 -1.2419741e-02 
4.1134916e-02 0.0000000e+00 2.8619109e-02 
5.2971029e-02 0.0000000e+00 -1.2419741e-02 
4.2932026e-02 1.0000000e-02 2.9182016e-02 
4.2932026e-02 0.0000000e+00 2.9182016e-02 
5.5562946e-02 1.0000000e-02 -1.2376723e-02 
4.5339682e-02 1.0000000e-02 2.9899231e-02 
5.5562946e-02 0.0000000e+00 -1.2376723e-02 
4.5339682e-02 0.0000000e+00 2.9899231e-02 
5.8154863e-02 1.0000000e-02 -1.2333705e-02 
4.7758221e-02 1.0000000e-02 3.0578844e-02 
5.8154863e-02 0.0000000e+00 -1.2333705e-02 
4.7758221e-02 0.0000000e+00 3.0578844e-02 
6.0746779e-02 1.0000000e-02 -1.2290686e-02 
5.0186760e-02 1.0000000e-02 3.1221807e-02 
6.0746779e-02 0.0000000e+00 -1.2290686e-02 
5.0186760e-02 0.0000000e+00 3.1221807e-02 
6.3338696e-02 1.0000000e-02 -1.2247668e-02 
5.2624513e-02 1.0000000e-02 3.1828903e-02 
6.3338696e-02 0.0000000e+00 -1.2247668e-02 
5.2624513e-02 0.0000000e+00 3.1828903e-02 
5.5070762e-02 1.0000000e-02 3.2400804e-02 
6.5930613e-02 1.0000000e-02 -1.2204650e-02 
5.5070762e-02 0.0000000e+00 3.2400804e-02 
6.5930613e-02 0.0000000e+00 -1.2204650e-02 
5.7524847e-02 1.0000000e-02 3.2938082e-02 
6.8522529e-02 1.0000000e-02 -1.2161631e-02 
5.7524847e-02 0.0000000e+00 3.2938082e-02 
6.8522529e-02 0.0000000e+00 -1.2161631e-02 
5.9986169e-02 1.0000000e-02 3.3441170e-02 
7.1114446e-02 1.0000000e-02 -1.2118613e-02 
5.9986169e-02 0.0000000e+00 3.3441170e-02 
7.1114446e-02 0.0000000e+00 -1.2118613e-02 
6.2454163e-02 1.0000000e-02 3.3910436e-02 
6.2454163e-02 0.0000000e+00 3.3910436e-02 
7.3706362e-02 1.0000000e-02 -1.2075595e-02 
7.3706362e-02 0.0000000e+00 -1.2075595e-02 
6.4928303e-02 1.0000000e-02 3.4346139e-02 
6.4928303e-02 0.0000000e+00 3.4346139e-02 
7.6298279e-02 1.0000000e-02 -1.2032577e-02 
7.6298279e-02 0.0000000e+00 -1.2032577e-02 
6.7408092e-02 1.0000000e-02 3.4748446e-02 
6.7408092e-02 0.0000000e+00 3.4748446e-02 
7.8890196e-02 1.0000000e-02 -1.1989558e-02 
7.8890196e-02 0.0000000e+00 -1.1989558e-02 
6.9893057e-02 1.0000000e-02 3.5117436e-02 
6.9893057e-02 0.0000000e+00 3.5117436e-02 
8.1482112e-02 1.0000000e-02 -1.1946540e-02 
8.1482112e-02 0.0000000e+00 -1.1946540e-02 
7.2382742e-02 1.0000000e-02 3.5453098e-02 
7.2382742e-02 0.0000000e+00 3.5453098e-02 
8.4074029e-02 1.0000000e-02 -1.1903522e-02 
7.4876707e-02 1.0000000e-02 3.5755332e-02 
8.4074029e-02 0.0000000e+00 -1.1903522e-02 
7.4876707e-02 0.0000000e+00 3.5755332e-02 
8.6665946e-02 1.0000000e-02 -1.1860503e-02 
7.7374516e-02 1.0000000e-02 3.6023948e-02 
8.6665946e-02 0.0000000e+00 -1.1860503e-02 
7.7374516e-02 0.0000000e+00 3.6023948e-02 
8.9257862e-02 1.0000000e-02 -1.1817485e-02 
7.9875738e-02 1.0000000e-02 3.6258665e-02 
8.9257862e-02 0.0000000e+00 -1.1817485e-02 
7.9875738e-02 0.0000000e+00 3.6258665e-02 
8.2379940e-02 1.0000000e-02 3.6459105e-02 
9.1849779e-02 1.0000000e-02 -1.1774467e-02 
8.2379940e-02 0.0000000e+00 3.6459105e-02 
9.1849779e-02 0.0000000e+00 -1.1774467e-02 
8.4886681e-02 1.0000000e-02 3.6624786e-02 
9.4441696e-02 1.0000000e-02 -1.1731448e-02 
8.4886681e-02 0.0000000e+00 3.6624786e-02 
9.4441696e-02 0.0000000e+00 -1.1731448e-02 
8.7395510e-02 1.0000000e-02 3.6755108e-02 
8.7395510e-02 0.0000000e+00 3.6755108e-02 
9.7033612e-02 1.0000000e-02 -1.1688430e-02 
9.7033612e-02 0.0000000e+00 -1.1688430e-02 
8.9905951e-02 1.0000000e-02 3.6849401e-02 
8.9905951e-02 0.0000000e+00 3.6849401e-02 
9.9625529e-02 1.0000000e-02 -1.1645412e-02 
9.9625529e-02 0.0000000e+00 -1.1645412e-02 
9.2417505e-02 1.0000000e-02 3.6906832e-02 
9.2417505e-02 0.0000000e+00 3.6906832e-02 
1.0221745e-01 1.0000000e-02 -1.1602393e-02 
1.0221745e-01 0.0000000e+00 -1.1602393e-02 
9.4929640e-02 1.0000000e-02 3.6926425e-02 
9.4929640e-02 0.0000000e+00 3.6926425e-02 
1.0480936e-01 1.0000000e-02 -1.1559375e-02 
1.0480936e-01 0.0000000e+00 -1.1559375e-02 
9.7441776e-02 1.0000000e-02 3.6907077e-02 
9.7441776e-02 0.0000000e+00 3.6907077e-02 
1.0740128e-01 1.0000000e-02 -1.1516357e-02 
1.0740128e-01 0.0000000e+00 -1.1516357e-02 
9.9953281e-02 1.0000000e-02 3.6847529e-02 
9.9953281e-02 0.0000000e+00 3.6847529e-02 
1.0999320e-01 1.0000000e-02 -1.1473339e-02 
1.0246345e-01 1.0000000e-02 3.6746314e-02 
1.0999320e-01 0.0000000e+00 -1.1473339e-02 
1.0246345e-01 0.0000000e+00 3.6746314e-02 
1.0497150e-01 1.0000000e-02 3.6601738e-02 
1.1258511e-01 1.0000000e-02 -1.1430320e-02 
1.0497150e-01 0.0000000e+00 3.6601738e-02 
1.1258511e-01 0.0000000e+00 -1.1430320e-02 
1.0747666e-01 1.0000000e-02 3.6413638e-02 
1.1517703e-01 1.0000000e-02 -1.1387302e-02 
1.0747666e-01 0.0000000e+00 3.6413638e-02 
[...]
POINT_DATA 824
FIELD FieldData 2
DISPLACEMENT 3 824  float
0.0000000e+00 0.0000000e+00 0.0000000e+00 
0.0000000e+00 0.0000000e+00 0.0000000e+00 
0.0000000e+00 0.0000000e+00 0.0000000e+00 
0.0000000e+00 0.0000000e+00 0.0000000e+00 
0.0000000e+00 0.0000000e+00 0.0000000e+00 
0.0000000e+00 0.0000000e+00 0.0000000e+00 
0.0000000e+00 0.0000000e+00 0.0000000e+00 
0.0000000e+00 0.0000000e+00 0.0000000e+00 
0.0000000e+00 0.0000000e+00 0.0000000e+00 
0.0000000e+00 0.0000000e+00 0.0000000e+00 
0.0000000e+00 0.0000000e+00 0.0000000e+00 
0.0000000e+00 0.0000000e+00 0.0000000e+00 
0.0000000e+00 0.0000000e+00 0.0000000e+00 
0.0000000e+00 0.0000000e+00 0.0000000e+00 
0.0000000e+00 0.0000000e+00 0.0000000e+00 
0.0000000e+00 0.0000000e+00 0.0000000e+00 
0.0000000e+00 0.0000000e+00 0.0000000e+00 
0.0000000e+00 0.0000000e+00 0.0000000e+00 
0.0000000e+00 0.0000000e+00 0.0000000e+00 
0.0000000e+00 0.0000000e+00 0.0000000e+00 
0.0000000e+00 0.0000000e+00 0.0000000e+00 
0.0000000e+00 0.0000000e+00 0.0000000e+00 
0.0000000e+00 0.0000000e+00 0.0000000e+00 
0.0000000e+00 0.0000000e+00 0.0000000e+00 
0.0000000e+00 0.0000000e+00 0.0000000e+00 
0.0000000e+00 0.0000000e+00 0.0000000e+00 
0.0000000e+00 0.0000000e+00 0.0000000e+00 
0.0000000e+00 0.0000000e+00 0.0000000e+00 
0.0000000e+00 0.0000000e+00 0.0000000e+00 
0.0000000e+00 0.0000000e+00 0.0000000e+00 
0.0000000e+00 0.0000000e+00 0.0000000e+00 
0.0000000e+00 0.0000000e+00 0.0000000e+00 
0.0000000e+00 0.0000000e+00 0.0000000e+00 
0.0000000e+00 0.0000000e+00 0.0000000e+00 
0.0000000e+00 0.0000000e+00 0.0000000e+00 
0.0000000e+00 0.0000000e+00 0.0000000e+00 
0.0000000e+00 0.0000000e+00 0.0000000e+00 
0.0000000e+00 0.0000000e+00 0.0000000e+00 
0.0000000e+00 0.0000000e+00 0.0000000e+00 
0.0000000e+00 0.0000000e+00 0.0000000e+00 
0.0000000e+00 0.0000000e+00 0.0000000e+00 
0.0000000e+00 0.0000000e+00 0.0000000e+00 
0.0000000e+00 0.0000000e+00 0.0000000e+00 
0.0000000e+00 0.0000000e+00 0.0000000e+00 
0.0000000e+00 0.0000000e+00 0.0000000e+00 
0.0000000e+00 0.0000000e+00 0.0000000e+00 
0.0000000e+00 0.0000000e+00 0.0000000e+00 
0.0000000e+00 0.0000000e+00 0.0000000e+00 
0.0000000e+00 0.0000000e+00 0.0000000e+00 
0.0000000e+00 0.0000000e+00 0.0000000e+00 
0.0000000e+00 0.0000000e+00 0.0000000e+00 
0.0000000e+00 0.0000000e+00 0.0000000e+00 
0.0000000e+00 0.0000000e+00 0.0000000e+00 
0.0000000e+00 0.0000000e+00 0.0000000e+00 
0.0000000e+00 0.0000000e+00 0.0000000e+00 
0.0000000e+00 0.0000000e+00 0.0000000e+00 
0.0000000e+00 0.0000000e+00 0.0000000e+00 
0.0000000e+00 0.0000000e+00 0.0000000e+00 
0.0000000e+00 0.0000000e+00 0.0000000e+00 
0.0000000e+00 0.0000000e+00 0.0000000e+00 
0.0000000e+00 0.0000000e+00 0.0000000e+00 
0.0000000e+00 0.0000000e+00 0.0000000e+00 
0.0000000e+00 0.0000000e+00 0.0000000e+00 
0.0000000e+00 0.0000000e+00 0.0000000e+00 
0.0000000e+00 0.0000000e+00 0.0000000e+00 
0.0000000e+00 0.0000000e+00 0.0000000e+00 
0.0000000e+00 0.0000000e+00 0.0000000e+00 
0.0000000e+00 0.0000000e+00 0.0000000e+00 
0.0000000e+00 0.0000000e+00 0.0000000e+00 
0.0000000e+00 0.0000000e+00 0.0000000e+00 
0.0000000e+00 0.0000000e+00 0.0000000e+00 
0.0000000e+00 0.0000000e+00 0.0000000e+00 
0.0000000e+00 0.0000000e+00 0.0000000e+00 
0.0000000e+00 0.0000000e+00 0.0000000e+00 
0.0000000e+00 0.0000000e+00 0.0000000e+00 
0.0000000e+00 0.0000000e+00 0.0000000e+00 
0.0000000e+00 0.0000000e+00 0.0000000e+00 
0.0000000e+00 0.0000000e+00 0.0000000e+00 
0.0000000e+00 0.0000000e+00 0.0000000e+00 
0.0000000e+00 0.0000000e+00 0.0000000e+00 
0.0000000e+00 0.0000000e+00 0.0000000e+00 
0.0000000e+00 0.0000000e+00 0.0000000e+00 
0.0000000e+00 0.0000000e+00 0.0000000e+00 
0.0000000e+00 0.0000000e+00 0.0000000e+00 
0.0000000e+00 0.0000000e+00 0.0000000e+00 
0.0000000e+00 0.0000000e+00 0.0000000e+00 
0.0000000e+00 0.0000000e+00 0.0000000e+00 
0.0000000e+00 0.0000000e+00 0.0000000e+00 
0.0000000e+00 0.0000000e+00 0.0000000e+00 
0.0000000e+00 0.0000000e+00 0.0000000e+00 
0.0000000e+00 0.0000000e+00 0.0000000e+00 
0.0000000e+00 0.0000000e+00 0.0000000e+00 
0.0000000e+00 0.0000000e+00 0.0000000e+00 
0.0000000e+00 0.0000000e+00 0.0000000e+00 
0.0000000e+00 0.0000000e+00 0.0000000e+00 
0.0000000e+00 0.0000000e+00 0.0000000e+00 
0.0000000e+00 0.0000000e+00 0.0000000e+00 
-7.8350806e-06 0.0000000e+00 1.4889948e-04 
0.0000000e+00 0.0000000e+00 0.0000000e+00 
-7.8350806e-06 0.0000000e+00 1.4889948e-04 
0.0000000e+00 0.0000000e+00 0.0000000e+00 
-1.5526121e-05 0.0000000e+00 2.9643581e-04 
0.0000000e+00 0.0000000e+00 0.0000000e+00 
-1.5526121e-05 0.0000000e+00 2.9643581e-04 
0.0000000e+00 0.0000000e+00 0.0000000e+00 
-2.3326312e-05 0.0000000e+00 4.4753055e-04 
0.0000000e+00 0.0000000e+00 0.0000000e+00 
-2.3326312e-05 0.0000000e+00 4.4753055e-04 
0.0000000e+00 0.0000000e+00 0.0000000e+00 
-3.2479594e-05 0.0000000e+00 6.2686485e-04 
0.0000000e+00 0.0000000e+00 0.0000000e+00 
-3.2479594e-05 0.0000000e+00 6.2686485e-04 
0.0000000e+00 0.0000000e+00 0.0000000e+00 
-4.3167134e-05 0.0000000e+00 8.3921406e-04 
0.0000000e+00 0.0000000e+00 0.0000000e+00 
0.0000000e+00 0.0000000e+00 0.0000000e+00 
-4.3167134e-05 0.0000000e+00 8.3921406e-04 
0.0000000e+00 0.0000000e+00 0.0000000e+00 
0.0000000e+00 0.0000000e+00 0.0000000e+00 
-5.4138161e-05 0.0000000e+00 1.0607218e-03 
0.0000000e+00 0.0000000e+00 0.0000000e+00 
-5.4138161e-05 0.0000000e+00 1.0607218e-03 
0.0000000e+00 0.0000000e+00 0.0000000e+00 
-6.4755190e-05 0.0000000e+00 1.2787641e-03 
0.0000000e+00 0.0000000e+00 0.0000000e+00 
-6.4755190e-05 0.0000000e+00 1.2787641e-03 
0.0000000e+00 0.0000000e+00 0.0000000e+00 
0.0000000e+00 0.0000000e+00 0.0000000e+00 
-7.5018151e-05 0.0000000e+00 1.4933047e-03 
0.0000000e+00 0.0000000e+00 0.0000000e+00 
-7.5018151e-05 0.0000000e+00 1.4933047e-03 
0.0000000e+00 0.0000000e+00 0.0000000e+00 
-8.4932892e-05 0.0000000e+00 1.7043462e-03 
0.0000000e+00 0.0000000e+00 0.0000000e+00 
-8.4932892e-05 0.0000000e+00 1.7043462e-03 
0.0000000e+00 0.0000000e+00 0.0000000e+00 
-9.4511817e-05 0.0000000e+00 1.9119576e-03 
0.0000000e+00 0.0000000e+00 0.0000000e+00 
-9.4511817e-05 0.0000000e+00 1.9119576e-03 
0.0000000e+00 0.0000000e+00 0.0000000e+00 
-1.0376282e-04 0.0000000e+00 2.1161826e-03 
0.0000000e+00 0.0000000e+00 0.0000000e+00 
-1.0376282e-04 0.0000000e+00 2.1161826e-03 
0.0000000e+00 0.0000000e+00 0.0000000e+00 
0.0000000e+00 0.0000000e+00 0.0000000e+00 
-1.1268605e-04 0.0000000e+00 2.3169819e-03 
0.0000000e+00 0.0000000e+00 0.0000000e+00 
-1.1268605e-04 0.0000000e+00 2.3169819e-03 
0.0000000e+00 0.0000000e+00 0.0000000e+00 
-1.2128810e-04 0.0000000e+00 2.5143681e-03 
0.0000000e+00 0.0000000e+00 0.0000000e+00 
-1.2128810e-04 0.0000000e+00 2.5143681e-03 
0.0000000e+00 0.0000000e+00 0.0000000e+00 
-1.2958280e-04 0.0000000e+00 2.7084358e-03 
0.0000000e+00 0.0000000e+00 0.0000000e+00 
-1.2958280e-04 0.0000000e+00 2.7084358e-03 
0.0000000e+00 0.0000000e+00 0.0000000e+00 
0.0000000e+00 0.0000000e+00 0.0000000e+00 
-1.3757677e-04 0.0000000e+00 2.8992180e-03 
-1.3757677e-04 0.0000000e+00 2.8992180e-03 
0.0000000e+00 0.0000000e+00 0.0000000e+00 
0.0000000e+00 0.0000000e+00 0.0000000e+00 
-1.4526889e-04 0.0000000e+00 3.0866639e-03 
-1.4526889e-04 0.0000000e+00 3.0866639e-03 
0.0000000e+00 0.0000000e+00 0.0000000e+00 
0.0000000e+00 0.0000000e+00 0.0000000e+00 
-1.5266301e-04 0.0000000e+00 3.2707586e-03 
-1.5266301e-04 0.0000000e+00 3.2707586e-03 
0.0000000e+00 0.0000000e+00 0.0000000e+00 
0.0000000e+00 0.0000000e+00 0.0000000e+00 
-1.5977055e-04 0.0000000e+00 3.4515763e-03 
-1.5977055e-04 0.0000000e+00 3.4515763e-03 
0.0000000e+00 0.0000000e+00 0.0000000e+00 
0.0000000e+00 0.0000000e+00 0.0000000e+00 
-1.6659671e-04 0.0000000e+00 3.6291386e-03 
0.0000000e+00 0.0000000e+00 0.0000000e+00 
-1.6659671e-04 0.0000000e+00 3.6291386e-03 
0.0000000e+00 0.0000000e+00 0.0000000e+00 
-1.7313638e-04 0.0000000e+00 3.8033458e-03 
0.0000000e+00 0.0000000e+00 0.0000000e+00 
-1.7313638e-04 0.0000000e+00 3.8033458e-03 
0.0000000e+00 0.0000000e+00 0.0000000e+00 
-1.7939171e-04 0.0000000e+00 3.9741626e-03 
0.0000000e+00 0.0000000e+00 0.0000000e+00 
-1.7939171e-04 0.0000000e+00 3.9741626e-03 
0.0000000e+00 0.0000000e+00 0.0000000e+00 
0.0000000e+00 0.0000000e+00 0.0000000e+00 
-1.8537660e-04 0.0000000e+00 4.1416923e-03 
0.0000000e+00 0.0000000e+00 0.0000000e+00 
-1.8537660e-04 0.0000000e+00 4.1416923e-03 
0.0000000e+00 0.0000000e+00 0.0000000e+00 
-1.9109840e-04 0.0000000e+00 4.3059857e-03 
0.0000000e+00 0.0000000e+00 0.0000000e+00 
-1.9109840e-04 0.0000000e+00 4.3059857e-03 
0.0000000e+00 0.0000000e+00 0.0000000e+00 
0.0000000e+00 0.0000000e+00 0.0000000e+00 
-1.9655359e-04 0.0000000e+00 4.4669619e-03 
-1.9655359e-04 0.0000000e+00 4.4669619e-03 
0.0000000e+00 0.0000000e+00 0.0000000e+00 
0.0000000e+00 0.0000000e+00 0.0000000e+00 
-2.0174198e-04 0.0000000e+00 4.6245532e-03 
-2.0174198e-04 0.0000000e+00 4.6245532e-03 
0.0000000e+00 0.0000000e+00 0.0000000e+00 
0.0000000e+00 0.0000000e+00 0.0000000e+00 
-2.0667129e-04 0.0000000e+00 4.7787924e-03 
-2.0667129e-04 0.0000000e+00 4.7787924e-03 
0.0000000e+00 0.0000000e+00 0.0000000e+00 
0.0000000e+00 0.0000000e+00 0.0000000e+00 
-2.1134603e-04 0.0000000e+00 4.9296961e-03 
-2.1134603e-04 0.0000000e+00 4.9296961e-03 
0.0000000e+00 0.0000000e+00 0.0000000e+00 
0.0000000e+00 0.0000000e+00 0.0000000e+00 
-2.1576417e-04 0.0000000e+00 5.0771939e-03 
-2.1576417e-04 0.0000000e+00 5.0771939e-03 
0.0000000e+00 0.0000000e+00 0.0000000e+00 
0.0000000e+00 0.0000000e+00 0.0000000e+00 
-2.1992763e-04 0.0000000e+00 5.2212382e-03 
0.0000000e+00 0.0000000e+00 0.0000000e+00 
-2.1992763e-04 0.0000000e+00 5.2212382e-03 
0.0000000e+00 0.0000000e+00 0.0000000e+00 
2.0893289e-06 0.0000000e+00 3.3773227e-04 
-2.2384281e-04 0.0000000e+00 5.3618406e-03 
2.0893289e-06 0.0000000e+00 3.3773227e-04 
-2.2384281e-04 0.0000000e+00 5.3618406e-03 
7.6458119e-06 0.0000000e+00 7.1121639e-04 
-2.2751237e-04 0.0000000e+00 5.4989905e-03 
7.6458119e-06 0.0000000e+00 7.1121639e-04 
-2.2751237e-04 0.0000000e+00 5.4989905e-03 
1.4716303e-05 0.0000000e+00 1.0891428e-03 
1.4716303e-05 0.0000000e+00 1.0891428e-03 
-2.3093434e-04 0.0000000e+00 5.6326060e-03 
-2.3093434e-04 0.0000000e+00 5.6326060e-03 
2.2317376e-05 0.0000000e+00 1.4592945e-03 
2.2317376e-05 0.0000000e+00 1.4592945e-03 
-2.3410878e-04 0.0000000e+00 5.7626071e-03 
-2.3410878e-04 0.0000000e+00 5.7626071e-03 
3.0423325e-05 0.0000000e+00 1.8217899e-03 
3.0423325e-05 0.0000000e+00 1.8217899e-03 
-2.3704045e-04 0.0000000e+00 5.8889819e-03 
-2.3704045e-04 0.0000000e+00 5.8889819e-03 
3.9018200e-05 0.0000000e+00 2.1766023e-03 
3.9018200e-05 0.0000000e+00 2.1766023e-03 
-2.3973200e-04 0.0000000e+00 6.0117057e-03 
-2.3973200e-04 0.0000000e+00 6.0117057e-03 
4.8084125e-05 0.0000000e+00 2.5236523e-03 
4.8084125e-05 0.0000000e+00 2.5236523e-03 
-2.4218100e-04 0.0000000e+00 6.1306726e-03 
-2.4218100e-04 0.0000000e+00 6.1306726e-03 
5.7599851e-05 0.0000000e+00 2.8629088e-03 
5.7599851e-05 0.0000000e+00 2.8629088e-03 
-2.4438695e-04 0.0000000e+00 6.2457776e-03 
6.7539730e-05 0.0000000e+00 3.1943707e-03 
-2.4438695e-04 0.0000000e+00 6.2457776e-03 
6.7539730e-05 0.0000000e+00 3.1943707e-03 
7.7875950e-05 0.0000000e+00 3.5180866e-03 
-2.4635398e-04 0.0000000e+00 6.3569807e-03 
7.7875950e-05 0.0000000e+00 3.5180866e-03 
-2.4635398e-04 0.0000000e+00 6.3569807e-03 
8.8581062e-05 0.0000000e+00 3.8341261e-03 
-2.4808621e-04 0.0000000e+00 6.4642646e-03 
8.8581062e-05 0.0000000e+00 3.8341261e-03 
-2.4808621e-04 0.0000000e+00 6.4642646e-03 
9.9629142e-05 0.0000000e+00 4.1425464e-03 
9.9629142e-05 0.0000000e+00 4.1425464e-03 
-2.4958572e-04 0.0000000e+00 6.5675754e-03 
-2.4958572e-04 0.0000000e+00 6.5675754e-03 
1.1099532e-04 0.0000000e+00 4.4433951e-03 
1.1099532e-04 0.0000000e+00 4.4433951e-03 
-2.5085436e-04 0.0000000e+00 6.6668309e-03 
-2.5085436e-04 0.0000000e+00 6.6668309e-03 
1.2265533e-04 0.0000000e+00 4.7367058e-03 
1.2265533e-04 0.0000000e+00 4.7367058e-03 
-2.5189504e-04 0.0000000e+00 6.7619577e-03 
-2.5189504e-04 0.0000000e+00 6.7619577e-03 
1.3458499e-04 0.0000000e+00 5.0225281e-03 
1.3458499e-04 0.0000000e+00 5.0225281e-03 
-2.5271348e-04 0.0000000e+00 6.8529519e-03 
-2.5271348e-04 0.0000000e+00 6.8529519e-03 
1.4676053e-04 0.0000000e+00 5.3008981e-03 
1.4676053e-04 0.0000000e+00 5.3008981e-03 
-2.5331652e-04 0.0000000e+00 6.9398310e-03 
-2.5331652e-04 0.0000000e+00 6.9398310e-03 
1.5916065e-04 0.0000000e+00 5.5717778e-03 
1.5916065e-04 0.0000000e+00 5.5717778e-03 
-2.5370750e-04 0.0000000e+00 7.0225187e-03 
-2.5370750e-04 0.0000000e+00 7.0225187e-03 
1.7176443e-04 0.0000000e+00 5.8350870e-03 
1.7176443e-04 0.0000000e+00 5.8350870e-03 
-2.5389008e-04 0.0000000e+00 7.1009395e-03 
-2.5389008e-04 0.0000000e+00 7.1009395e-03 
1.8454877e-04 0.0000000e+00 6.0908457e-03 
1.8454877e-04 0.0000000e+00 6.0908457e-03 
-2.5387361e-04 0.0000000e+00 7.1751550e-03 
1.9748963e-04 0.0000000e+00 6.3391303e-03 
-2.5387361e-04 0.0000000e+00 7.1751550e-03 
1.9748963e-04 0.0000000e+00 6.3391303e-03 
-2.5366811e-04 0.0000000e+00 7.2452450e-03 
2.1056423e-04 0.0000000e+00 6.5799616e-03 
-2.5366811e-04 0.0000000e+00 7.2452450e-03 
2.1056423e-04 0.0000000e+00 6.5799616e-03 
2.2375065e-04 0.0000000e+00 6.8133374e-03 
-2.5327912e-04 0.0000000e+00 7.3111799e-03 
2.2375065e-04 0.0000000e+00 6.8133374e-03 
-2.5327912e-04 0.0000000e+00 7.3111799e-03 
2.3702629e-04 0.0000000e+00 7.0393043e-03 
2.3702629e-04 0.0000000e+00 7.0393043e-03 
-2.5271166e-04 0.0000000e+00 7.3729119e-03 
-2.5271166e-04 0.0000000e+00 7.3729119e-03 
2.5036896e-04 0.0000000e+00 7.2579522e-03 
2.5036896e-04 0.0000000e+00 7.2579522e-03 
-2.5197517e-04 0.0000000e+00 7.4305159e-03 
-2.5197517e-04 0.0000000e+00 7.4305159e-03 
2.6375643e-04 0.0000000e+00 7.4693534e-03 
2.6375643e-04 0.0000000e+00 7.4693534e-03 
-2.5108089e-04 0.0000000e+00 7.4841213e-03 
-2.5108089e-04 0.0000000e+00 7.4841213e-03 
2.7716744e-04 0.0000000e+00 7.6735936e-03 
2.7716744e-04 0.0000000e+00 7.6735936e-03 
-2.5003609e-04 0.0000000e+00 7.5337463e-03 
-2.5003609e-04 0.0000000e+00 7.5337463e-03 
2.9058171e-04 0.0000000e+00 7.8707720e-03 
2.9058171e-04 0.0000000e+00 7.8707720e-03 
-2.4884566e-04 0.0000000e+00 7.5793468e-03 
-2.4884566e-04 0.0000000e+00 7.5793468e-03 
3.0398003e-04 0.0000000e+00 8.0609638e-03 
3.0398003e-04 0.0000000e+00 8.0609638e-03 
-2.4751778e-04 0.0000000e+00 7.6209860e-03 
-2.4751778e-04 0.0000000e+00 7.6209860e-03 
3.1734321e-04 0.0000000e+00 8.2442290e-03 
3.1734321e-04 0.0000000e+00 8.2442290e-03 
-2.4606233e-04 0.0000000e+00 7.6587873e-03 
-2.4606233e-04 0.0000000e+00 7.6587873e-03 
3.3065280e-04 0.0000000e+00 8.4206669e-03 
3.3065280e-04 0.0000000e+00 8.4206669e-03 
-2.4448638e-04 0.0000000e+00 7.6927883e-03 
-2.4448638e-04 0.0000000e+00 7.6927883e-03 
3.4389192e-04 0.0000000e+00 8.5903845e-03 
3.4389192e-04 0.0000000e+00 8.5903845e-03 
-2.4279578e-04 0.0000000e+00 7.7229911e-03 
-2.4279578e-04 0.0000000e+00 7.7229911e-03 
3.5704357e-04 0.0000000e+00 8.7534410e-03 
3.5704357e-04 0.0000000e+00 8.7534410e-03 
-2.4099818e-04 0.0000000e+00 7.7494732e-03 
-2.4099818e-04 0.0000000e+00 7.7494732e-03 
3.7009048e-04 0.0000000e+00 8.9098790e-03 
3.7009048e-04 0.0000000e+00 8.9098790e-03 
-2.3910147e-04 0.0000000e+00 7.7723331e-03 
-2.3910147e-04 0.0000000e+00 7.7723331e-03 
3.8301581e-04 0.0000000e+00 9.0597593e-03 
3.8301581e-04 0.0000000e+00 9.0597593e-03 
-2.3711195e-04 0.0000000e+00 7.7916078e-03 
3.9580414e-04 0.0000000e+00 9.2031378e-03 
-2.3711195e-04 0.0000000e+00 7.7916078e-03 
3.9580414e-04 0.0000000e+00 9.2031378e-03 
4.0843878e-04 0.0000000e+00 9.3400113e-03 
-2.3503585e-04 0.0000000e+00 7.8073368e-03 
4.0843878e-04 0.0000000e+00 9.3400113e-03 
-2.3503585e-04 0.0000000e+00 7.8073368e-03 
4.2090349e-04 0.0000000e+00 9.4704118e-03 
-2.3287972e-04 0.0000000e+00 7.8195953e-03 
4.2090349e-04 0.0000000e+00 9.4704118e-03 
-2.3287972e-04 0.0000000e+00 7.8195953e-03 
4.3318333e-04 0.0000000e+00 9.5944067e-03 
4.3318333e-04 0.0000000e+00 9.5944067e-03 
-2.3064985e-04 0.0000000e+00 7.8284622e-03 
-2.3064985e-04 0.0000000e+00 7.8284622e-03 
4.4526199e-04 0.0000000e+00 9.7119881e-03 
4.4526199e-04 0.0000000e+00 9.7119881e-03 
-2.2835255e-04 0.0000000e+00 7.8340198e-03 
-2.2835255e-04 0.0000000e+00 7.8340198e-03 
4.5712254e-04 0.0000000e+00 9.8231253e-03 
4.5712254e-04 0.0000000e+00 9.8231253e-03 
-2.2599382e-04 0.0000000e+00 7.8363546e-03 
-2.2599382e-04 0.0000000e+00 7.8363546e-03 
4.6875025e-04 0.0000000e+00 9.9278830e-03 
4.6875025e-04 0.0000000e+00 9.9278830e-03 
-2.2357851e-04 0.0000000e+00 7.8355097e-03 
-2.2357851e-04 0.0000000e+00 7.8355097e-03 
4.8013292e-04 0.0000000e+00 1.0026372e-02 
4.8013292e-04 0.0000000e+00 1.0026372e-02 
-2.2111123e-04 0.0000000e+00 7.8315243e-03 
-2.2111123e-04 0.0000000e+00 7.8315243e-03 
4.9125522e-04 0.0000000e+00 1.0118592e-02 
4.9125522e-04 0.0000000e+00 1.0118592e-02 
-2.1859740e-04 0.0000000e+00 7.8244911e-03 
-2.1859740e-04 0.0000000e+00 7.8244911e-03 
5.0210061e-04 0.0000000e+00 1.0204513e-02 
5.0210061e-04 0.0000000e+00 1.0204513e-02 
-2.1604236e-04 0.0000000e+00 7.8145193e-03 
-2.1604236e-04 0.0000000e+00 7.8145193e-03 
5.1265943e-04 0.0000000e+00 1.0284275e-02 
5.1265943e-04 0.0000000e+00 1.0284275e-02 
-2.1345039e-04 0.0000000e+00 7.8016754e-03 
-2.1345039e-04 0.0000000e+00 7.8016754e-03 
5.2292707e-04 0.0000000e+00 1.0358103e-02 
5.2292707e-04 0.0000000e+00 1.0358103e-02 
-2.1082519e-04 0.0000000e+00 7.7859957e-03 
-2.1082519e-04 0.0000000e+00 7.7859957e-03 
5.3289404e-04 0.0000000e+00 1.0426075e-02 
5.3289404e-04 0.0000000e+00 1.0426075e-02 
-2.0817090e-04 0.0000000e+00 7.7675747e-03 
-2.0817090e-04 0.0000000e+00 7.7675747e-03 
5.4254672e-04 0.0000000e+00 1.0488185e-02 
5.4254672e-04 0.0000000e+00 1.0488185e-02 
-2.0549187e-04 0.0000000e+00 7.7465619e-03 
-2.0549187e-04 0.0000000e+00 7.7465619e-03 
5.5187957e-04 0.0000000e+00 1.0544594e-02 
5.5187957e-04 0.0000000e+00 1.0544594e-02 
-2.0279152e-04 0.0000000e+00 7.7230470e-03 
-2.0279152e-04 0.0000000e+00 7.7230470e-03 
5.6089585e-04 0.0000000e+00 1.0595595e-02 
5.6089585e-04 0.0000000e+00 1.0595595e-02 
-2.0007264e-04 0.0000000e+00 7.6970640e-03 
-2.0007264e-04 0.0000000e+00 7.6970640e-03 
5.6955455e-04 0.0000000e+00 1.0641167e-02 
5.6955455e-04 0.0000000e+00 1.0641167e-02 
-1.9732998e-04 0.0000000e+00 7.6686191e-03 
-1.9732998e-04 0.0000000e+00 7.6686191e-03 
5.7952422e-04 0.0000000e+00 1.0689136e-02 
5.7952422e-04 0.0000000e+00 1.0689136e-02 
-1.9402217e-04 0.0000000e+00 7.6315417e-03 
-1.9402217e-04 0.0000000e+00 7.6315417e-03 
5.9088669e-04 0.0000000e+00 1.0737459e-02 
5.9088669e-04 0.0000000e+00 1.0737459e-02 
-1.9003502e-04 0.0000000e+00 7.5831568e-03 
-1.9003502e-04 0.0000000e+00 7.5831568e-03 
6.0368910e-04 0.0000000e+00 1.0783153e-02 
6.0368910e-04 0.0000000e+00 1.0783153e-02 
-1.8528188e-04 0.0000000e+00 7.5206495e-03 
-1.8528188e-04 0.0000000e+00 7.5206495e-03 
6.1622767e-04 0.0000000e+00 1.0817802e-02 
6.1622767e-04 0.0000000e+00 1.0817802e-02 
-1.8051756e-04 0.0000000e+00 7.4529933e-03 
-1.8051756e-04 0.0000000e+00 7.4529933e-03 
6.2780988e-04 0.0000000e+00 1.0839439e-02 
6.2780988e-04 0.0000000e+00 1.0839439e-02 
-1.7574897e-04 0.0000000e+00 7.3804644e-03 
-1.7574897e-04 0.0000000e+00 7.3804644e-03 
6.3846562e-04 0.0000000e+00 1.0848944e-02 
6.3846562e-04 0.0000000e+00 1.0848944e-02 
-1.7098151e-04 0.0000000e+00 7.3035508e-03 
-1.7098151e-04 0.0000000e+00 7.3035508e-03 
6.4823429e-04 0.0000000e+00 1.0847225e-02 
6.4823429e-04 0.0000000e+00 1.0847225e-02 
-1.6621878e-04 0.0000000e+00 7.2229001e-03 
-1.6621878e-04 0.0000000e+00 7.2229001e-03 
6.5716471e-04 0.0000000e+00 1.0835223e-02 
6.5716471e-04 0.0000000e+00 1.0835223e-02 
-1.6146381e-04 0.0000000e+00 7.1388651e-03 
-1.6146381e-04 0.0000000e+00 7.1388651e-03 
6.6532415e-04 0.0000000e+00 1.0814017e-02 
6.6532415e-04 0.0000000e+00 1.0814017e-02 
-1.5671900e-04 0.0000000e+00 7.0515180e-03 
-1.5671900e-04 0.0000000e+00 7.0515180e-03 
6.7273016e-04 0.0000000e+00 1.0784037e-02 
6.7273016e-04 0.0000000e+00 1.0784037e-02 
-1.5198623e-04 0.0000000e+00 6.9610227e-03 
-1.5198623e-04 0.0000000e+00 6.9610227e-03 
6.7934859e-04 0.0000000e+00 1.0745102e-02 