# vtk DataFile Version 4.0
vtk output
ASCII
DATASET UNSTRUCTURED_GRID
POINTS 824 float
-6.4148600e-05 1.0000000e-02 -4.4525366e-03 
-1.0680180e-04 1.0000000e-02 -2.8088474e-03 
3.4513260e-04 1.0000000e-02 -6.0450544e-03 
1.3803532e-03 1.0000000e-02 -7.3230534e-03 
6.5829700e-05 1.0000000e-02 -1.1736922e-03 
2.7142144e-03 1.0000000e-02 -8.2851896e-03 
5.0392030e-04 1.0000000e-02 6.5784910e-04 
4.1780764e-03 1.0000000e-02 -9.0342357e-03 
1.1628646e-03 1.0000000e-02 2.4220088e-03 
5.7070961e-03 1.0000000e-02 -9.6390187e-03 
2.0046218e-03 1.0000000e-02 4.1066196e-03 
7.2731595e-03 1.0000000e-02 -1.0140047e-02 
-6.4148600e-05 0.0000000e+00 -4.4525366e-03 
-1.0680180e-04 0.0000000e+00 -2.8088474e-03 
3.4513260e-04 0.0000000e+00 -6.0450544e-03 
1.3803532e-03 0.0000000e+00 -7.3230534e-03 
6.5829700e-05 0.0000000e+00 -1.1736922e-03 
2.9952540e-03 1.0000000e-02 5.7082181e-03 
8.8622628e-03 1.0000000e-02 -1.0562311e-02 
2.7142144e-03 0.0000000e+00 -8.2851896e-03 
5.0392030e-04 0.0000000e+00 6.5784910e-04 
4.1780764e-03 0.0000000e+00 -9.0342357e-03 
1.1628646e-03 0.0000000e+00 2.4220088e-03 
1.0466628e-02 1.0000000e-02 -1.0922252e-02 
4.1067238e-03 1.0000000e-02 7.2284501e-03 
5.7070961e-03 0.0000000e+00 -9.6390187e-03 
2.0046218e-03 0.0000000e+00 4.1066196e-03 
7.2731595e-03 0.0000000e+00 -1.0140047e-02 
1.2081579e-02 1.0000000e-02 -1.1231240e-02 
5.3166988e-03 1.0000000e-02 8.6715129e-03 
2.9952540e-03 0.0000000e+00 5.7082181e-03 
8.8622628e-03 0.0000000e+00 -1.0562311e-02 
1.3704120e-02 1.0000000e-02 -1.1497501e-02 
1.0466628e-02 0.0000000e+00 -1.0922252e-02 
4.1067238e-03 0.0000000e+00 7.2284501e-03 
6.6076374e-03 1.0000000e-02 1.0042624e-02 
1.5332244e-02 1.0000000e-02 -1.1727173e-02 
1.2081579e-02 0.0000000e+00 -1.1231240e-02 
5.3166988e-03 0.0000000e+00 8.6715129e-03 
7.9658343e-03 1.0000000e-02 1.1347144e-02 
1.3704120e-02 0.0000000e+00 -1.1497501e-02 
1.6964543e-02 1.0000000e-02 -1.1925002e-02 
6.6076374e-03 0.0000000e+00 1.0042624e-02 
9.3804686e-03 1.0000000e-02 1.2590236e-02 
1.5332244e-02 0.0000000e+00 -1.1727173e-02 
1.8600004e-02 1.0000000e-02 -1.2094716e-02 
7.9658343e-03 0.0000000e+00 1.1347144e-02 
1.6964543e-02 0.0000000e+00 -1.1925002e-02 
1.0843002e-02 1.0000000e-02 1.3776601e-02 
2.0237876e-02 1.0000000e-02 -1.2239318e-02 
9.3804686e-03 0.0000000e+00 1.2590236e-02 
1.8600004e-02 0.0000000e+00 -1.2094716e-02 
1.2346566e-02 1.0000000e-02 1.4910517e-02 
2.1877591e-02 1.0000000e-02 -1.2361246e-02 
1.0843002e-02 0.0000000e+00 1.3776601e-02 
2.0237876e-02 0.0000000e+00 -1.2239318e-02 
1.3885623e-02 1.0000000e-02 1.5995768e-02 
2.3518711e-02 1.0000000e-02 -1.2462540e-02 
1.2346566e-02 0.0000000e+00 1.4910517e-02 
2.1877591e-02 0.0000000e+00 -1.2361246e-02 
2.5160890e-02 1.0000000e-02 -1.2544903e-02 
1.5455654e-02 1.0000000e-02 1.7035707e-02 
1.3885623e-02 0.0000000e+00 1.5995768e-02 
2.3518711e-02 0.0000000e+00 -1.2462540e-02 
2.6803852e-02 1.0000000e-02 -1.2609772e-02 
1.7052912e-02 1.0000000e-02 1.8033321e-02 
2.5160890e-02 0.0000000e+00 -1.2544903e-02 
1.5455654e-02 0.0000000e+00 1.7035707e-02 
2.8447376e-02 1.0000000e-02 -1.2658389e-02 
2.6803852e-02 0.0000000e+00 -1.2609772e-02 
1.7052912e-02 0.0000000e+00 1.8033321e-02 
1.8674284e-02 1.0000000e-02 1.8991246e-02 
3.0091279e-02 1.0000000e-02 -1.2691814e-02 
2.8447376e-02 0.0000000e+00 -1.2658389e-02 
1.8674284e-02 0.0000000e+00 1.8991246e-02 
2.0317149e-02 1.0000000e-02 1.9911822e-02 
3.0091279e-02 0.0000000e+00 -1.2691814e-02 
3.1735410e-02 1.0000000e-02 -1.2710971e-02 
2.0317149e-02 0.0000000e+00 1.9911822e-02 
2.1979295e-02 1.0000000e-02 2.0797113e-02 
3.1735410e-02 0.0000000e+00 -1.2710971e-02 
3.3379643e-02 1.0000000e-02 -1.2716676e-02 
2.1979295e-02 0.0000000e+00 2.0797113e-02 
2.3658832e-02 1.0000000e-02 2.1648949e-02 
3.3379643e-02 0.0000000e+00 -1.2716676e-02 
3.5023871e-02 1.0000000e-02 -1.2709629e-02 
2.3658832e-02 0.0000000e+00 2.1648949e-02 
2.5354100e-02 1.0000000e-02 2.2469029e-02 
3.5023871e-02 0.0000000e+00 -1.2709629e-02 
3.6668001e-02 1.0000000e-02 -1.2690457e-02 
2.5354100e-02 0.0000000e+00 2.2469029e-02 
2.7063712e-02 1.0000000e-02 2.3258772e-02 
3.6668001e-02 0.0000000e+00 -1.2690457e-02 
3.8312016e-02 1.0000000e-02 -1.2663038e-02 
2.7063712e-02 0.0000000e+00 2.3258772e-02 
3.8312016e-02 0.0000000e+00 -1.2663038e-02 
2.8786417e-02 1.0000000e-02 2.4019532e-02 
3.9956032e-02 1.0000000e-02 -1.2635752e-02 
2.8786417e-02 0.0000000e+00 2.4019532e-02 
3.9956032e-02 0.0000000e+00 -1.2635752e-02 
3.0521135e-02 1.0000000e-02 2.4752486e-02 
4.1600048e-02 1.0000000e-02 -1.2608467e-02 
3.0521135e-02 0.0000000e+00 2.4752486e-02 
4.1600048e-02 0.0000000e+00 -1.2608467e-02 
3.2266919e-02 1.0000000e-02 2.5458676e-02 
4.3299814e-02 1.0000000e-02 -1.2580255e-02 
3.2266919e-02 0.0000000e+00 2.5458676e-02 
4.3299814e-02 0.0000000e+00 -1.2580255e-02 
3.4022902e-02 1.0000000e-02 2.6139111e-02 
4.5339533e-02 1.0000000e-02 -1.2546402e-02 
3.4022902e-02 0.0000000e+00 2.6139111e-02 
4.5339533e-02 0.0000000e+00 -1.2546402e-02 
3.5788340e-02 1.0000000e-02 2.6794623e-02 
4.7787196e-02 1.0000000e-02 -1.2505778e-02 
3.5788340e-02 0.0000000e+00 2.6794623e-02 
3.7562554e-02 1.0000000e-02 2.7425996e-02 
4.7787196e-02 0.0000000e+00 -1.2505778e-02 
3.7562554e-02 0.0000000e+00 2.7425996e-02 
3.9344928e-02 1.0000000e-02 2.8033950e-02 
5.0379113e-02 1.0000000e-02 -1.2462760e-02 
3.9344928e-02 0.0000000e+00 2.8033950e-02 
5.0379113e-02 0.0000000e+00 -1.2462760e-02 
4.1134916e-02 1.0000000e-02 2.8619109e-02 
5.2971029e-02 1.0000000e-02 -1.2419741e-02 
4.1134916e-02 0.0000000e+00 2.8619109e-02 
5.2971029e-02 0.0000000e+00 -1.2419741e-02 
4.2932026e-02 1.0000000e-02 2.9182016e-02 
4.2932026e-02 0.0000000e+00 2.9182016e-02 
5.5562946e-02 1.0000000e-02 -1.2376723e-02 
4.5339682e-02 1.0000000e-02 2.9899231e-02 
5.5562946e-02 0.0000000e+00 -1.2376723e-02 
4.5339682e-02 0.0000000e+00 2.9899231e-02 
5.8154863e-02 1.0000000e-02 -1.2333705e-02 
4.7758221e-02 1.0000000e-02 3.0578844e-02 
5.8154863e-02 0.0000000e+00 -1.2333705e-02 
4.7758221e-02 0.0000000e+00 3.0578844e-02 
6.0746779e-02 1.0000000e-02 -1.2290686e-02 
5.0186760e-02 1.0000000e-02 3.1221807e-02 
6.0746779e-02 0.0000000e+00 -1.2290686e-02 
5.0186760e-02 0.0000000e+00 3.1221807e-02 
6.3338696e-02 1.0000000e-02 -1.2247668e-02 
5.2624513e-02 1.0000000e-02 3.1828903e-02 
6.3338696e-02 0.0000000e+00 -1.2247668e-02 
5.2624513e-02 0.0000000e+00 3.1828903e-02 
5.5070762e-02 1.0000000e-02 3.2400804e-02 
6.5930613e-02 1.0000000e-02 -1.2204650e-02 
5.5070762e-02 0.0000000e+00 3.2400804e-02 
6.5930613e-02 0.0000000e+00 -1.2204650e-02 
5.7524847e-02 1.0000000e-02 3.2938082e-02 
6.8522529e-02 1.0000000e-02 -1.2161631e-02 
5.7524847e-02 0.0000000e+00 3.2938082e-02 
6.8522529e-02 0.0000000e+00 -1.2161631e-02 
5.9986169e-02 1.0000000e-02 3.3441170e-02 
7.1114446e-02 1.0000000e-02 -1.2118613e-02 
5.9986169e-02 0.0000000e+00 3.3441170e-02 
7.1114446e-02 0.0000000e+00 -1.2118613e-02 
6.2454163e-02 1.0000000e-02 3.3910436e-02 
6.2454163e-02 0.0000000e+00 3.3910436e-02 
7.3706362e-02 1.0000000e-02 -1.2075595e-02 
7.3706362e-02 0.0000000e+00 -1.2075595e-02 
6.4928303e-02 1.0000000e-02 3.4346139e-02 
6.4928303e-02 0.0000000e+00 3.4346139e-02 
7.6298279e-02 1.0000000e-02 -1.2032577e-02 
7.6298279e-02 0.0000000e+00 -1.2032577e-02 
6.7408092e-02 1.0000000e-02 3.4748446e-02 
6.7408092e-02 0.0000000e+00 3.4748446e-02 
7.8890196e-02 1.0000000e-02 -1.1989558e-02 
7.8890196e-02 0.0000000e+00 -1.1989558e-02 
6.9893057e-02 1.0000000e-02 3.5117436e-02 
6.9893057e-02 0.0000000e+00 3.5117436e-02 
8.1482112e-02 1.0000000e-02 -1.1946540e-02 
8.1482112e-02 0.0000000e+00 -1.1946540e-02 
7.2382742e-02 1.0000000e-02 3.5453098e-02 
7.2382742e-02 0.0000000e+00 3.5453098e-02 
8.4074029e-02 1.0000000e-02 -1.1903522e-02 
7.4876707e-02 1.0000000e-02 3.5755332e-02 
8.4074029e-02 0.0000000e+00 -1.1903522e-02 
7.4876707e-02 0.0000000e+00 3.5755332e-02 
8.6665946e-02 1.0000000e-02 -1.1860503e-02 
7.7374516e-02 1.0000000e-02 3.6023948e-02 
8.6665946e-02 0.0000000e+00 -1.1860503e-02 
7.7374516e-02 0.0000000e+00 3.6023948e-02 
8.9257862e-02 1.0000000e-02 -1.1817485e-02 
7.9875738e-02 1.0000000e-02 3.6258665e-02 
8.9257862e-02 0.0000000e+00 -1.1817485e-02 
7.9875738e-02 0.0000000e+00 3.6258665e-02 
8.2379940e-02 1.0000000e-02 3.6459105e-02 
9.1849779e-02 1.0000000e-02 -1.1774467e-02 
8.2379940e-02 0.0000000e+00 3.6459105e-02 
9.1849779e-02 0.0000000e+00 -1.1774467e-02 
8.4886681e-02 1.0000000e-02 3.6624786e-02 
9.4441696e-02 1.0000000e-02 -1.1731448e-02 
8.4886681e-02 0.0000000e+00 3.6624786e-02 
9.4441696e-02 0.0000000e+00 -1.1731448e-02 
8.7395510e-02 1.0000000e-02 3.6755108e-02 
8.7395510e-02 0.0000000e+00 3.6755108e-02 
9.7033612e-02 1.0000000e-02 -1.1688430e-02 
9.7033612e-02 0.0000000e+00 -1.1688430e-02 
8.9905951e-02 1.0000000e-02 3.6849401e-02 
8.9905951e-02 0.0000000e+00 3.6849401e-02 
9.9625529e-02 1.0000000e-02 -1.1645412e-02 
9.9625529e-02 0.0000000e+00 -1.1645412e-02 
9.2417505e-02 1.0000000e-02 3.6906832e-02 
9.2417505e-02 0.0000000e+00 3.6906832e-02 
1.0221745e-01 1.0000000e-02 -1.1602393e-02 
1.0221745e-01 0.0000000e+00 -1.1602393e-02 
9.4929640e-02 1.0000000e-02 3.6926425e-02 
9.4929640e-02 0.0000000e+00 3.6926425e-02 
1.0480936e-01 1.0000000e-02 -1.1559375e-02 
1.0480936e-01 0.0000000e+00 -1.1559375e-02 
9.7441776e-02 1.0000000e-02 3.6907077e-02 
9.7441776e-02 0.0000000e+00 3.6907077e-02 
1.0740128e-01 1.0000000e-02 -1.1516357e-02 
1.0740128e-01 0.0000000e+00 -1.1516357e-02 
9.9953281e-02 1.0000000e-02 3.6847529e-02 
9.9953281e-02 0.0000000e+00 3.6847529e-02 
1.0999320e-01 1.0000000e-02 -1.1473339e-02 
1.0246345e-01 1.0000000e-02 3.6746314e-02 
1.0999320e-01 0.0000000e+00 -1.1473339e-02 
1.0246345e-01 0.0000000e+00 3.6746314e-02 
1.0497150e-01 1.0000000e-02 3.6601738e-02 
1.1258511e-01 1.0000000e-02 -1.1430320e-02 
1.0497150e-01 0.0000000e+00 3.6601738e-02 
1.1258511e-01 0.0000000e+00 -1.1430320e-02 
1.0747666e-01 1.0000000e-02 3.6413638e-02 
1.1517703e-01 1.0000000e-02 -1.1387302e-02 
1.0747666e-01 0.0000000e+00 3.6413638e-02 
[...]
POINT_DATA 824
FIELD FieldData 2
DISPLACEMENT 3 824  float
0.0000000e+00 0.0000000e+00 0.0000000e+00 
0.0000000e+00 0.0000000e+00 0.0000000e+00 
0.0000000e+00 0.0000000e+00 0.0000000e+00 
0.0000000e+00 0.0000000e+00 0.0000000e+00 
0.0000000e+00 0.0000000e+00 0.0000000e+00 
0.0000000e+00 0.0000000e+00 0.0000000e+00 
0.0000000e+00 0.0000000e+00 0.0000000e+00 
0.0000000e+00 0.0000000e+00 0.0000000e+00 
0.0000000e+00 0.0000000e+00 0.0000000e+00 
0.0000000e+00 0.0000000e+00 0.0000000e+00 
0.0000000e+00 0.0000000e+00 0.0000000e+00 
0.0000000e+00 0.0000000e+00 0.0000000e+00 
0.0000000e+00 0.0000000e+00 0.0000000e+00 
0.0000000e+00 0.0000000e+00 0.0000000e+00 
0.0000000e+00 0.0000000e+00 0.0000000e+00 
0.0000000e+00 0.0000000e+00 0.0000000e+00 
0.0000000e+00 0.0000000e+00 0.0000000e+00 
0.0000000e+00 0.0000000e+00 0.0000000e+00 
0.0000000e+00 0.0000000e+00 0.0000000e+00 
0.0000000e+00 0.0000000e+00 0.0000000e+00 
0.0000000e+00 0.0000000e+00 0.0000000e+00 
0.0000000e+00 0.0000000e+00 0.0000000e+00 
0.0000000e+00 0.0000000e+00 0.0000000e+00 
0.0000000e+00 0.0000000e+00 0.0000000e+00 
0.0000000e+00 0.0000000e+00 0.0000000e+00 
0.0000000e+00 0.0000000e+00 0.0000000e+00 
0.0000000e+00 0.0000000e+00 0.0000000e+00 
0.0000000e+00 0.0000000e+00 0.0000000e+00 
0.0000000e+00 0.0000000e+00 0.0000000e+00 
0.0000000e+00 0.0000000e+00 0.0000000e+00 
0.0000000e+00 0.0000000e+00 0.0000000e+00 
0.0000000e+00 0.0000000e+00 0.0000000e+00 
0.0000000e+00 0.0000000e+00 0.0000000e+00 
0.0000000e+00 0.0000000e+00 0.0000000e+00 
0.0000000e+00 0.0000000e+00 0.0000000e+00 
0.0000000e+00 0.0000000e+00 0.0000000e+00 
0.0000000e+00 0.0000000e+00 0.0000000e+00 
0.0000000e+00 0.0000000e+00 0.0000000e+00 
0.0000000e+00 0.0000000e+00 0.0000000e+00 
0.0000000e+00 0.0000000e+00 0.0000000e+00 
0.0000000e+00 0.0000000e+00 0.0000000e+00 
0.0000000e+00 0.0000000e+00 0.0000000e+00 
0.0000000e+00 0.0000000e+00 0.0000000e+00 
0.0000000e+00 0.0000000e+00 0.0000000e+00 
0.0000000e+00 0.0000000e+00 0.0000000e+00 
0.0000000e+00 0.0000000e+00 0.0000000e+00 
0.0000000e+00 0.0000000e+00 0.0000000e+00 
0.0000000e+00 0.0000000e+00 0.0000000e+00 
0.0000000e+00 0.0000000e+00 0.0000000e+00 
0.0000000e+00 0.0000000e+00 0.0000000e+00 
0.0000000e+00 0.0000000e+00 0.0000000e+00 
0.0000000e+00 0.0000000e+00 0.0000000e+00 
0.0000000e+00 0.0000000e+00 0.0000000e+00 
0.0000000e+00 0.0000000e+00 0.0000000e+00 
0.0000000e+00 0.0000000e+00 0.0000000e+00 
0.0000000e+00 0.0000000e+00 0.0000000e+00 
0.0000000e+00 0.0000000e+00 0.0000000e+00 
0.0000000e+00 0.0000000e+00 0.0000000e+00 
0.0000000e+00 0.0000000e+00 0.0000000e+00 
0.0000000e+00 0.0000000e+00 0.0000000e+00 
0.0000000e+00 0.0000000e+00 0.0000000e+00 
0.0000000e+00 0.0000000e+00 0.0000000e+00 
0.0000000e+00 0.0000000e+00 0.0000000e+00 
0.0000000e+00 0.0000000e+00 0.0000000e+00 
0.0000000e+00 0.0000000e+00 0.0000000e+00 
0.0000000e+00 0.0000000e+00 0.0000000e+00 
0.0000000e+00 0.0000000e+00 0.0000000e+00 
0.0000000e+00 0.0000000e+00 0.0000000e+00 
0.0000000e+00 0.0000000e+00 0.0000000e+00 
0.0000000e+00 0.0000000e+00 0.0000000e+00 
0.0000000e+00 0.0000000e+00 0.0000000e+00 
0.0000000e+00 0.0000000e+00 0.0000000e+00 
0.0000000e+00 0.0000000e+00 0.0000000e+00 
0.0000000e+00 0.0000000e+00 0.0000000e+00 
0.0000000e+00 0.0000000e+00 0.0000000e+00 
0.0000000e+00 0.0000000e+00 0.0000000e+00 
0.0000000e+00 0.0000000e+00 0.0000000e+00 
0.0000000e+00 0.0000000e+00 0.0000000e+00 
0.0000000e+00 0.0000000e+00 0.0000000e+00 
0.0000000e+00 0.0000000e+00 0.0000000e+00 
0.0000000e+00 0.0000000e+00 0.0000000e+00 
0.0000000e+00 0.0000000e+00 0.0000000e+00 
0.0000000e+00 0.0000000e+00 0.0000000e+00 
0.0000000e+00 0.0000000e+00 0.0000000e+00 
0.0000000e+00 0.0000000e+00 0.0000000e+00 
0.0000000e+00 0.0000000e+00 0.0000000e+00 
0.0000000e+00 0.0000000e+00 0.0000000e+00 
0.0000000e+00 0.0000000e+00 0.0000000e+00 
0.0000000e+00 0.0000000e+00 0.0000000e+00 
0.0000000e+00 0.0000000e+00 0.0000000e+00 
0.0000000e+00 0.0000000e+00 0.0000000e+00 
0.0000000e+00 0.0000000e+00 0.0000000e+00 
0.0000000e+00 0.0000000e+00 0.0000000e+00 
0.0000000e+00 0.0000000e+00 0.0000000e+00 
0.0000000e+00 0.0000000e+00 0.0000000e+00 
0.0000000e+00 0.0000000e+00 0.0000000e+00 
0.0000000e+00 0.0000000e+00 0.0000000e+00 
3.5127706e-03 0.0000000e+00 -9.6193850e-04 
0.0000000e+00 0.0000000e+00 0.0000000e+00 
3.5127706e-03 0.0000000e+00 -9.6193850e-04 
0.0000000e+00 0.0000000e+00 0.0000000e+00 
7.0249486e-03 0.0000000e+00 -1.9236853e-03 
0.0000000e+00 0.0000000e+00 0.0000000e+00 
7.0249486e-03 0.0000000e+00 -1.9236853e-03 
0.0000000e+00 0.0000000e+00 0.0000000e+00 
1.0655216e-02 0.0000000e+00 -2.9178676e-03 
0.0000000e+00 0.0000000e+00 0.0000000e+00 
1.0655216e-02 0.0000000e+00 -2.9178676e-03 
0.0000000e+00 0.0000000e+00 0.0000000e+00 
1.5009299e-02 0.0000000e+00 -4.1108016e-03 
0.0000000e+00 0.0000000e+00 0.0000000e+00 
1.5009299e-02 0.0000000e+00 -4.1108016e-03 
0.0000000e+00 0.0000000e+00 0.0000000e+00 
2.0227071e-02 0.0000000e+00 -5.5440289e-03 
0.0000000e+00 0.0000000e+00 0.0000000e+00 
0.0000000e+00 0.0000000e+00 0.0000000e+00 
2.0227071e-02 0.0000000e+00 -5.5440289e-03 
0.0000000e+00 0.0000000e+00 0.0000000e+00 
3.6990094e-03 0.0000000e+00 -6.9734359e-04 
2.5738914e-02 0.0000000e+00 -7.0664628e-03 
3.6990094e-03 0.0000000e+00 -6.9734359e-04 
2.5738914e-02 0.0000000e+00 -7.0664628e-03 
7.4205271e-03 0.0000000e+00 -1.3974856e-03 
3.1233479e-02 0.0000000e+00 -8.5958032e-03 
7.4205271e-03 0.0000000e+00 -1.3974856e-03 
3.1233479e-02 0.0000000e+00 -8.5958032e-03 
1.1163017e-02 0.0000000e+00 -2.1009215e-03 
1.1163017e-02 0.0000000e+00 -2.1009215e-03 
3.6707602e-02 0.0000000e+00 -1.0134043e-02 
1.6181507e-02 0.0000000e+00 -3.0480651e-03 
3.6707602e-02 0.0000000e+00 -1.0134043e-02 
1.6181507e-02 0.0000000e+00 -3.0480651e-03 
4.2158769e-02 0.0000000e+00 -1.1682346e-02 
2.1222109e-02 0.0000000e+00 -4.0096488e-03 
4.2158769e-02 0.0000000e+00 -1.1682346e-02 
2.1222109e-02 0.0000000e+00 -4.0096488e-03 
4.7584512e-02 0.0000000e+00 -1.3241825e-02 
2.6280313e-02 0.0000000e+00 -4.9881052e-03 
4.7584512e-02 0.0000000e+00 -1.3241825e-02 
2.6280313e-02 0.0000000e+00 -4.9881052e-03 
5.2981675e-02 0.0000000e+00 -1.4814418e-02 
3.1353340e-02 0.0000000e+00 -5.9849117e-03 
5.2981675e-02 0.0000000e+00 -1.4814418e-02 
3.1353340e-02 0.0000000e+00 -5.9849117e-03 
3.6438026e-02 0.0000000e+00 -7.0017102e-03 
5.8346808e-02 0.0000000e+00 -1.6402184e-02 
3.6438026e-02 0.0000000e+00 -7.0017102e-03 
5.8346808e-02 0.0000000e+00 -1.6402184e-02 
4.1530883e-02 0.0000000e+00 -8.0402665e-03 
6.3679264e-02 0.0000000e+00 -1.8005125e-02 
4.1530883e-02 0.0000000e+00 -8.0402665e-03 
6.3679264e-02 0.0000000e+00 -1.8005125e-02 
4.6629339e-02 0.0000000e+00 -9.1018193e-03 
6.8978909e-02 0.0000000e+00 -1.9622918e-02 
4.6629339e-02 0.0000000e+00 -9.1018193e-03 
6.8978909e-02 0.0000000e+00 -1.9622918e-02 
5.1731301e-02 0.0000000e+00 -1.0187295e-02 
5.1731301e-02 0.0000000e+00 -1.0187295e-02 
7.4243125e-02 0.0000000e+00 -2.1257016e-02 
7.4243125e-02 0.0000000e+00 -2.1257016e-02 
5.6834831e-02 0.0000000e+00 -1.1297400e-02 
5.6834831e-02 0.0000000e+00 -1.1297400e-02 
7.9469121e-02 0.0000000e+00 -2.2908925e-02 
7.9469121e-02 0.0000000e+00 -2.2908925e-02 
6.1938569e-02 0.0000000e+00 -1.2432552e-02 
6.1938569e-02 0.0000000e+00 -1.2432552e-02 
8.4654456e-02 0.0000000e+00 -2.4579365e-02 
8.4654456e-02 0.0000000e+00 -2.4579365e-02 
6.7041518e-02 0.0000000e+00 -1.3593176e-02 
6.7041518e-02 0.0000000e+00 -1.3593176e-02 
8.9796935e-02 0.0000000e+00 -2.6268874e-02 
8.9796935e-02 0.0000000e+00 -2.6268874e-02 
7.2142572e-02 0.0000000e+00 -1.4779817e-02 
7.2142572e-02 0.0000000e+00 -1.4779817e-02 
9.4894096e-02 0.0000000e+00 -2.7978622e-02 
7.7239913e-02 0.0000000e+00 -1.5993588e-02 
9.4894096e-02 0.0000000e+00 -2.7978622e-02 
7.7239913e-02 0.0000000e+00 -1.5993588e-02 
9.9943134e-02 0.0000000e+00 -2.9709885e-02 
8.2331399e-02 0.0000000e+00 -1.7235808e-02 
9.9943134e-02 0.0000000e+00 -2.9709885e-02 
8.2331399e-02 0.0000000e+00 -1.7235808e-02 
1.0494323e-01 0.0000000e+00 -3.1462475e-02 
8.7415498e-02 0.0000000e+00 -1.8507421e-02 
1.0494323e-01 0.0000000e+00 -3.1462475e-02 
8.7415498e-02 0.0000000e+00 -1.8507421e-02 
9.2491158e-02 0.0000000e+00 -1.9809209e-02 
1.0989366e-01 0.0000000e+00 -3.3236123e-02 
9.2491158e-02 0.0000000e+00 -1.9809209e-02 
1.0989366e-01 0.0000000e+00 -3.3236123e-02 
9.7555826e-02 0.0000000e+00 -2.1142745e-02 
1.1479161e-01 0.0000000e+00 -3.5032009e-02 
9.7555826e-02 0.0000000e+00 -2.1142745e-02 
1.1479161e-01 0.0000000e+00 -3.5032009e-02 
1.0260553e-01 0.0000000e+00 -2.2510347e-02 
1.0260553e-01 0.0000000e+00 -2.2510347e-02 
1.1963371e-01 0.0000000e+00 -3.6851533e-02 
1.1963371e-01 0.0000000e+00 -3.6851533e-02 
1.0763707e-01 0.0000000e+00 -2.3914055e-02 
1.0763707e-01 0.0000000e+00 -2.3914055e-02 
1.2441682e-01 0.0000000e+00 -3.8695580e-02 
1.2441682e-01 0.0000000e+00 -3.8695580e-02 
1.1264831e-01 0.0000000e+00 -2.5355701e-02 
1.1264831e-01 0.0000000e+00 -2.5355701e-02 
1.2913801e-01 0.0000000e+00 -4.0564902e-02 
1.2913801e-01 0.0000000e+00 -4.0564902e-02 
1.1763569e-01 0.0000000e+00 -2.6839013e-02 
1.1763569e-01 0.0000000e+00 -2.6839013e-02 
1.3379309e-01 0.0000000e+00 -4.2461103e-02 
1.3379309e-01 0.0000000e+00 -4.2461103e-02 
1.2259466e-01 0.0000000e+00 -2.8368356e-02 
1.2259466e-01 0.0000000e+00 -2.8368356e-02 
1.3837809e-01 0.0000000e+00 -4.4385692e-02 
1.3837809e-01 0.0000000e+00 -4.4385692e-02 
1.2752196e-01 0.0000000e+00 -2.9946678e-02 
1.2752196e-01 0.0000000e+00 -2.9946678e-02 
1.4289157e-01 0.0000000e+00 -4.6338685e-02 
1.3241514e-01 0.0000000e+00 -3.1576757e-02 
1.4289157e-01 0.0000000e+00 -4.6338685e-02 
1.3241514e-01 0.0000000e+00 -3.1576757e-02 
1.3725935e-01 0.0000000e+00 -3.3269314e-02 
1.4733121e-01 0.0000000e+00 -4.8320376e-02 
1.3725935e-01 0.0000000e+00 -3.3269314e-02 
1.4733121e-01 0.0000000e+00 -4.8320376e-02 
1.4203770e-01 0.0000000e+00 -3.5034134e-02 
1.5169215e-01 0.0000000e+00 -5.0332396e-02 
1.4203770e-01 0.0000000e+00 -3.5034134e-02 
1.5169215e-01 0.0000000e+00 -5.0332396e-02 
1.4671842e-01 0.0000000e+00 -3.6857296e-02 
1.4671842e-01 0.0000000e+00 -3.6857296e-02 
1.5596954e-01 0.0000000e+00 -5.2376209e-02 
1.5596954e-01 0.0000000e+00 -5.2376209e-02 
1.5128595e-01 0.0000000e+00 -3.8733574e-02 
1.5128595e-01 0.0000000e+00 -3.8733574e-02 
1.6015765e-01 0.0000000e+00 -5.4453250e-02 
1.6015765e-01 0.0000000e+00 -5.4453250e-02 
1.5573757e-01 0.0000000e+00 -4.0661506e-02 
1.5573757e-01 0.0000000e+00 -4.0661506e-02 
1.6425033e-01 0.0000000e+00 -5.6564840e-02 
1.6425033e-01 0.0000000e+00 -5.6564840e-02 
1.6007199e-01 0.0000000e+00 -4.2638777e-02 
1.6007199e-01 0.0000000e+00 -4.2638777e-02 
1.6824276e-01 0.0000000e+00 -5.8711542e-02 
1.6824276e-01 0.0000000e+00 -5.8711542e-02 
1.6428598e-01 0.0000000e+00 -4.4664285e-02 
1.6428598e-01 0.0000000e+00 -4.4664285e-02 
1.7213080e-01 0.0000000e+00 -6.0893289e-02 
1.7213080e-01 0.0000000e+00 -6.0893289e-02 
1.6837470e-01 0.0000000e+00 -4.6737002e-02 
1.6837470e-01 0.0000000e+00 -4.6737002e-02 
1.7591007e-01 0.0000000e+00 -6.3109467e-02 
1.7233292e-01 0.0000000e+00 -4.8850923e-02 
1.7591007e-01 0.0000000e+00 -6.3109467e-02 
1.7233292e-01 0.0000000e+00 -4.8850923e-02 
1.7615676e-01 0.0000000e+00 -5.0998593e-02 
1.7957577e-01 0.0000000e+00 -6.5359039e-02 
1.7615676e-01 0.0000000e+00 -5.0998593e-02 
1.7957577e-01 0.0000000e+00 -6.5359039e-02 
1.7984009e-01 0.0000000e+00 -5.3175635e-02 
1.8312381e-01 0.0000000e+00 -6.7640459e-02 
1.7984009e-01 0.0000000e+00 -5.3175635e-02 
1.8312381e-01 0.0000000e+00 -6.7640459e-02 
1.8337423e-01 0.0000000e+00 -5.5376046e-02 
1.8337423e-01 0.0000000e+00 -5.5376046e-02 
1.8655203e-01 0.0000000e+00 -6.9951178e-02 
1.8655203e-01 0.0000000e+00 -6.9951178e-02 
1.8677458e-01 0.0000000e+00 -5.7578263e-02 
1.8677458e-01 0.0000000e+00 -5.7578263e-02 
1.8985899e-01 0.0000000e+00 -7.2287668e-02 
1.8985899e-01 0.0000000e+00 -7.2287668e-02 
1.9006022e-01 0.0000000e+00 -5.9761671e-02 
1.9006022e-01 0.0000000e+00 -5.9761671e-02 
1.9304313e-01 0.0000000e+00 -7.4645903e-02 
1.9304313e-01 0.0000000e+00 -7.4645903e-02 
1.9322988e-01 0.0000000e+00 -6.1922168e-02 
1.9322988e-01 0.0000000e+00 -6.1922168e-02 
1.9610391e-01 0.0000000e+00 -7.7021518e-02 
1.9610391e-01 0.0000000e+00 -7.7021518e-02 
1.9628225e-01 0.0000000e+00 -6.4058282e-02 
1.9628225e-01 0.0000000e+00 -6.4058282e-02 
1.9904335e-01 0.0000000e+00 -7.9409492e-02 
1.9904335e-01 0.0000000e+00 -7.9409492e-02 
1.9924209e-01 0.0000000e+00 -6.6177376e-02 
1.9924209e-01 0.0000000e+00 -6.6177376e-02 
2.0186291e-01 0.0000000e+00 -8.1804447e-02 
2.0186291e-01 0.0000000e+00 -8.1804447e-02 
2.0213263e-01 0.0000000e+00 -6.8286730e-02 
2.0213263e-01 0.0000000e+00 -6.8286730e-02 
2.0456369e-01 0.0000000e+00 -8.4201184e-02 
2.0456369e-01 0.0000000e+00 -8.4201184e-02 
2.0494751e-01 0.0000000e+00 -7.0385823e-02 
2.0494751e-01 0.0000000e+00 -7.0385823e-02 
2.0714831e-01 0.0000000e+00 -8.6595041e-02 
2.0768421e-01 0.0000000e+00 -7.2474468e-02 
2.0714831e-01 0.0000000e+00 -8.6595041e-02 
2.0768421e-01 0.0000000e+00 -7.2474468e-02 
2.0961857e-01 0.0000000e+00 -8.8981861e-02 
2.1033313e-01 0.0000000e+00 -7.4554732e-02 
2.0961857e-01 0.0000000e+00 -8.8981861e-02 
2.1033313e-01 0.0000000e+00 -7.4554732e-02 
2.1288156e-01 0.0000000e+00 -7.6627808e-02 
2.1197672e-01 0.0000000e+00 -9.1357537e-02 
2.1288156e-01 0.0000000e+00 -7.6627808e-02 
2.1197672e-01 0.0000000e+00 -9.1357537e-02 
2.1532663e-01 0.0000000e+00 -7.8691869e-02 
2.1532663e-01 0.0000000e+00 -7.8691869e-02 
2.1422420e-01 0.0000000e+00 -9.3718470e-02 
2.1422420e-01 0.0000000e+00 -9.3718470e-02 
2.1766938e-01 0.0000000e+00 -8.0744976e-02 
2.1766938e-01 0.0000000e+00 -8.0744976e-02 
2.1636126e-01 0.0000000e+00 -9.6062198e-02 
2.1636126e-01 0.0000000e+00 -9.6062198e-02 
2.1991019e-01 0.0000000e+00 -8.2783606e-02 
2.1991019e-01 0.0000000e+00 -8.2783606e-02 
2.1838899e-01 0.0000000e+00 -9.8386848e-02 
2.1838899e-01 0.0000000e+00 -9.8386848e-02 
2.2204890e-01 0.0000000e+00 -8.4804119e-02 
2.2204890e-01 0.0000000e+00 -8.4804119e-02 
2.2030692e-01 0.0000000e+00 -1.0068982e-01 
2.2030692e-01 0.0000000e+00 -1.0068982e-01 
2.2408359e-01 0.0000000e+00 -8.6803783e-02 
2.2408359e-01 0.0000000e+00 -8.6803783e-02 
2.2211249e-01 0.0000000e+00 -1.0296827e-01 
2.2211249e-01 0.0000000e+00 -1.0296827e-01 
2.2601291e-01 0.0000000e+00 -8.8779934e-02 
2.2601291e-01 0.0000000e+00 -8.8779934e-02 
2.2380317e-01 0.0000000e+00 -1.0522021e-01 
2.2380317e-01 0.0000000e+00 -1.0522021e-01 
2.2784635e-01 0.0000000e+00 -9.0729593e-02 
2.2784635e-01 0.0000000e+00 -9.0729593e-02 
2.2537751e-01 0.0000000e+00 -1.0744383e-01 
2.2537751e-01 0.0000000e+00 -1.0744383e-01 
2.2959300e-01 0.0000000e+00 -9.2649928e-02 
2.2959300e-01 0.0000000e+00 -9.2649928e-02 
2.2683587e-01 0.0000000e+00 -1.0963658e-01 
2.2683587e-01 0.0000000e+00 -1.0963658e-01 
2.3125195e-01 0.0000000e+00 -9.4538686e-02 
2.3125195e-01 0.0000000e+00 -9.4538686e-02 
2.2817616e-01 0.0000000e+00 -1.1179517e-01 
2.2817616e-01 0.0000000e+00 -1.1179517e-01 
2.3281861e-01 0.0000000e+00 -9.6392487e-02 
2.3281861e-01 0.0000000e+00 -9.6392487e-02 
2.2939355e-01 0.0000000e+00 -1.1391649e-01 
2.2939355e-01 0.0000000e+00 -1.1391649e-01 
2.3428137e-01 0.0000000e+00 -9.8206534e-02 
2.3428137e-01 0.0000000e+00 -9.8206534e-02 
2.3048553e-01 0.0000000e+00 -1.1599787e-01 
2.3048553e-01 0.0000000e+00 -1.1599787e-01 
2.3563132e-01 0.0000000e+00 -9.9977007e-02 
2.3563132e-01 0.0000000e+00 -9.9977007e-02 
2.3144924e-01 0.0000000e+00 -1.1803536e-01 
2.3686604e-01 0.0000000e+00 -1.0170109e-01 
2.3144924e-01 0.0000000e+00 -1.1803536e-01 
2.3686604e-01 0.0000000e+00 -1.0170109e-01 
2.3798011e-01 0.0000000e+00 -1.0337449e-01 
2.3227908e-01 0.0000000e+00 -1.2002374e-01 
2.3798011e-01 0.0000000e+00 -1.0337449e-01 
2.3227908e-01 0.0000000e+00 -1.2002374e-01 
2.3896914e-01 0.0000000e+00 -1.0499216e-01 
2.3296949e-01 0.0000000e+00 -1.2195823e-01 
2.3896914e-01 0.0000000e+00 -1.0499216e-01 
2.3296949e-01 0.0000000e+00 -1.2195823e-01 
2.3982986e-01 0.0000000e+00 -1.0654912e-01 
2.3982986e-01 0.0000000e+00 -1.0654912e-01 
2.3351652e-01 0.0000000e+00 -1.2383423e-01 
2.3351652e-01 0.0000000e+00 -1.2383423e-01 
2.4055823e-01 0.0000000e+00 -1.0804023e-01 
2.4055823e-01 0.0000000e+00 -1.0804023e-01 
2.3391641e-01 0.0000000e+00 -1.2564610e-01 
2.3391641e-01 0.0000000e+00 -1.2564610e-01 
2.4115019e-01 0.0000000e+00 -1.0945974e-01 
2.4115019e-01 0.0000000e+00 -1.0945974e-01 
2.3416329e-01 0.0000000e+00 -1.2738659e-01 
2.3416329e-01 0.0000000e+00 -1.2738659e-01 
2.4160823e-01 0.0000000e+00 -1.1080303e-01 
2.4160823e-01 0.0000000e+00 -1.1080303e-01 
2.3424913e-01 0.0000000e+00 -1.2904702e-01 
2.3424913e-01 0.0000000e+00 -1.2904702e-01 
2.4193573e-01 0.0000000e+00 -1.1206575e-01 
2.4193573e-01 0.0000000e+00 -1.1206575e-01 
2.3416588e-01 0.0000000e+00 -1.3061731e-01 
2.3416588e-01 0.0000000e+00 -1.3061731e-01 
2.4213003e-01 0.0000000e+00 -1.1324162e-01 
2.4213003e-01 0.0000000e+00 -1.1324162e-01 
2.3392212e-01 0.0000000e+00 -1.3209262e-01 
2.3392212e-01 0.0000000e+00 -1.3209262e-01 
2.4218687e-01 0.0000000e+00 -1.1432250e-01 
2.4218687e-01 0.0000000e+00 -1.1432250e-01 
2.3353025e-01 0.0000000e+00 -1.3347066e-01 
2.3353025e-01 0.0000000e+00 -1.3347066e-01 
2.4210615e-01 0.0000000e+00 -1.1530044e-01 
2.4210615e-01 0.0000000e+00 -1.1530044e-01 
2.3298807e-01 0.0000000e+00 -1.3474319e-01 
2.3298807e-01 0.0000000e+00 -1.3474319e-01 
2.4189198e-01 0.0000000e+00 -1.1617015e-01 
2.4189198e-01 0.0000000e+00 -1.1617015e-01 
2.3229157e-01 0.0000000e+00 -1.3589966e-01 
2.3229157e-01 0.0000000e+00 -1.3589966e-01 
2.4154349e-01 0.0000000e+00 -1.1692388e-01 
2.4154349e-01 0.0000000e+00 -1.1692388e-01 
2.3144199e-01 0.0000000e+00 -1.3693018e-01 
2.3144199e-01 0.0000000e+00 -1.3693018e-01 
2.4105730e-01 0.0000000e+00 -1.1755047e-01 
2.4105730e-01 0.0000000e+00 -1.1755047e-01 
2.3044354e-01 0.0000000e+00 -1.3782655e-01 
2.3044354e-01 0.0000000e+00 -1.3782655e-01 
2.4042514e-01 0.0000000e+00 -1.1803199e-01 
2.4042514e-01 0.0000000e+00 -1.1803199e-01 
2.2929827e-01 0.0000000e+00 -1.3858058e-01 
2.2929827e-01 0.0000000e+00 -1.3858058e-01 
2.3963817e-01 0.0000000e+00 -1.1834599e-01 
2.3963817e-01 0.0000000e+00 -1.1834599e-01 
2.2800992e-01 0.0000000e+00 -1.3918475e-01 
2.2800992e-01 0.0000000e+00 -1.3918475e-01 
2.3870041e-01 0.0000000e+00 -1.1847338e-01 
2.3870041e-01 0.0000000e+00 -1.1847338e-01 
2.2657783e-01 0.0000000e+00 -1.3962992e-01 
2.2657783e-01 0.0000000e+00 -1.3962992e-01 
2.3737488e-01 0.0000000e+00 -1.1835528e-01 
2.3737488e-01 0.0000000e+00 -1.1835528e-01 
2.2467873e-01 0.0000000e+00 -1.3993406e-01 
2.2467873e-01 0.0000000e+00 -1.3993406e-01 
2.3551125e-01 0.0000000e+00 -1.1777510e-01 
2.3551125e-01 0.0000000e+00 -1.1777510e-01 
2.2215465e-01 0.0000000e+00 -1.3994917e-01 
2.2215465e-01 0.0000000e+00 -1.3994917e-01 
2.3293526e-01 0.0000000e+00 -1.1637934e-01 
2.3293526e-01 0.0000000e+00 -1.1637934e-01 
2.1885472e-01 0.0000000e+00 -1.3945883e-01 
2.1885472e-01 0.0000000e+00 -1.3945883e-01 
2.2992502e-01 0.0000000e+00 -1.1402356e-01 
2.2992502e-01 0.0000000e+00 -1.1402356e-01 
2.1528026e-01 0.0000000e+00 -1.3840342e-01 
2.1528026e-01 0.0000000e+00 -1.3840342e-01 
2.2675146e-01 0.0000000e+00 -1.1075754e-01 
2.2675146e-01 0.0000000e+00 -1.1075754e-01 
2.1147981e-01 0.0000000e+00 -1.3676737e-01 
2.1147981e-01 0.0000000e+00 -1.3676737e-01 
2.2354794e-01 0.0000000e+00 -1.0664960e-01 
2.2354794e-01 0.0000000e+00 -1.0664960e-01 
2.0751170e-01 0.0000000e+00 -1.3455579e-01 
2.0751170e-01 0.0000000e+00 -1.3455579e-01 
2.2040921e-01 0.0000000e+00 -1.0182936e-01 
2.2040921e-01 0.0000000e+00 -1.0182936e-01 
2.0343446e-01 0.0000000e+00 -1.3179991e-01 
2.0343446e-01 0.0000000e+00 -1.3179991e-01 
2.1738317e-01 0.0000000e+00 -9.6444339e-02 
2.1738317e-01 0.0000000e+00 -9.6444339e-02 
1.9929439e-01 0.0000000e+00 -1.2853630e-01 
1.9929439e-01 0.0000000e+00 -1.2853630e-01 
2.1448761e-01 0.0000000e+00 -9.0611613e-02 
2.1448761e-01 0.0000000e+00 -9.0611613e-02 
1.9513217e-01 0.0000000e+00 -1.2481165e-01 
1.9513217e-01 0.0000000e+00 -1.2481165e-01 
2.1171701e-01 0.0000000e+00 -8.4440187e-02 