# vtk DataFile Version 4.0
vtk output
ASCII
DATASET UNSTRUCTURED_GRID
POINTS 824 float
-6.4148600e-05 1.0000000e-02 -4.4525366e-03 
-1.0680180e-04 1.0000000e-02 -2.8088474e-03 
3.4513260e-04 1.0000000e-02 -6.0450544e-03 
1.3803532e-03 1.0000000e-02 -7.3230534e-03 
6.5829700e-05 1.0000000e-02 -1.1736922e-03 
2.7142144e-03 1.0000000e-02 -8.2851896e-03 
5.0392030e-04 1.0000000e-02 6.5784910e-04 
4.1780764e-03 1.0000000e-02 -9.0342357e-03 
1.1628646e-03 1.0000000e-02 2.4220088e-03 
5.7070961e-03 1.0000000e-02 -9.6390187e-03 
2.0046218e-03 1.0000000e-02 4.1066196e-03 
7.2731595e-03 1.0000000e-02 -1.0140047e-02 
-6.4148600e-05 0.0000000e+00 -4.4525366e-03 
-1.0680180e-04 0.0000000e+00 -2.8088474e-03 
3.4513260e-04 0.0000000e+00 -6.0450544e-03 
1.3803532e-03 0.0000000e+00 -7.3230534e-03 
6.5829700e-05 0.0000000e+00 -1.1736922e-03 
2.9952540e-03 1.0000000e-02 5.7082181e-03 
8.8622628e-03 1.0000000e-02 -1.0562311e-02 
2.7142144e-03 0.0000000e+00 -8.2851896e-03 
5.0392030e-04 0.0000000e+00 6.5784910e-04 
4.1780764e-03 0.0000000e+00 -9.0342357e-03 
1.1628646e-03 0.0000000e+00 2.4220088e-03 
1.0466628e-02 1.0000000e-02 -1.0922252e-02 
4.1067238e-03 1.0000000e-02 7.2284501e-03 
5.7070961e-03 0.0000000e+00 -9.6390187e-03 
2.0046218e-03 0.0000000e+00 4.1066196e-03 
7.2731595e-03 0.0000000e+00 -1.0140047e-02 
1.2081579e-02 1.0000000e-02 -1.1231240e-02 
5.3166988e-03 1.0000000e-02 8.6715129e-03 
2.9952540e-03 0.0000000e+00 5.7082181e-03 
8.8622628e-03 0.0000000e+00 -1.0562311e-02 
1.3704120e-02 1.0000000e-02 -1.1497501e-02 
1.0466628e-02 0.0000000e+00 -1.0922252e-02 
4.1067238e-03 0.0000000e+00 7.2284501e-03 
6.6076374e-03 1.0000000e-02 1.0042624e-02 
1.5332244e-02 1.0000000e-02 -1.1727173e-02 
1.2081579e-02 0.0000000e+00 -1.1231240e-02 
5.3166988e-03 0.0000000e+00 8.6715129e-03 
7.9658343e-03 1.0000000e-02 1.1347144e-02 
1.3704120e-02 0.0000000e+00 -1.1497501e-02 
1.6964543e-02 1.0000000e-02 -1.1925002e-02 
6.6076374e-03 0.0000000e+00 1.0042624e-02 
9.3804686e-03 1.0000000e-02 1.2590236e-02 
1.5332244e-02 0.0000000e+00 -1.1727173e-02 
1.8600004e-02 1.0000000e-02 -1.2094716e-02 
7.9658343e-03 0.0000000e+00 1.1347144e-02 
1.6964543e-02 0.0000000e+00 -1.1925002e-02 
1.0843002e-02 1.0000000e-02 1.3776601e-02 
2.0237876e-02 1.0000000e-02 -1.2239318e-02 
9.3804686e-03 0.0000000e+00 1.2590236e-02 
1.8600004e-02 0.0000000e+00 -1.2094716e-02 
1.2346566e-02 1.0000000e-02 1.4910517e-02 
2.1877591e-02 1.0000000e-02 -1.2361246e-02 
1.0843002e-02 0.0000000e+00 1.3776601e-02 
2.0237876e-02 0.0000000e+00 -1.2239318e-02 
1.3885623e-02 1.0000000e-02 1.5995768e-02 
2.3518711e-02 1.0000000e-02 -1.2462540e-02 
1.2346566e-02 0.0000000e+00 1.4910517e-02 
2.1877591e-02 0.0000000e+00 -1.2361246e-02 
2.5160890e-02 1.0000000e-02 -1.2544903e-02 
1.5455654e-02 1.0000000e-02 1.7035707e-02 
1.3885623e-02 0.0000000e+00 1.5995768e-02 
2.3518711e-02 0.0000000e+00 -1.2462540e-02 
2.6803852e-02 1.0000000e-02 -1.2609772e-02 
1.7052912e-02 1.0000000e-02 1.8033321e-02 
2.5160890e-02 0.0000000e+00 -1.2544903e-02 
1.5455654e-02 0.0000000e+00 1.7035707e-02 
2.8447376e-02 1.0000000e-02 -1.2658389e-02 
2.6803852e-02 0.0000000e+00 -1.2609772e-02 
1.7052912e-02 0.0000000e+00 1.8033321e-02 
1.8674284e-02 1.0000000e-02 1.8991246e-02 
3.0091279e-02 1.0000000e-02 -1.2691814e-02 
2.8447376e-02 0.0000000e+00 -1.2658389e-02 
1.8674284e-02 0.0000000e+00 1.8991246e-02 
2.0317149e-02 1.0000000e-02 1.9911822e-02 
3.0091279e-02 0.0000000e+00 -1.2691814e-02 
3.1735410e-02 1.0000000e-02 -1.2710971e-02 
2.0317149e-02 0.0000000e+00 1.9911822e-02 
2.1979295e-02 1.0000000e-02 2.0797113e-02 
3.1735410e-02 0.0000000e+00 -1.2710971e-02 
3.3379643e-02 1.0000000e-02 -1.2716676e-02 
2.1979295e-02 0.0000000e+00 2.0797113e-02 
2.3658832e-02 1.0000000e-02 2.1648949e-02 
3.3379643e-02 0.0000000e+00 -1.2716676e-02 
3.5023871e-02 1.0000000e-02 -1.2709629e-02 
2.3658832e-02 0.0000000e+00 2.1648949e-02 
2.5354100e-02 1.0000000e-02 2.2469029e-02 
3.5023871e-02 0.0000000e+00 -1.2709629e-02 
3.6668001e-02 1.0000000e-02 -1.2690457e-02 
2.5354100e-02 0.0000000e+00 2.2469029e-02 
2.7063712e-02 1.0000000e-02 2.3258772e-02 
3.6668001e-02 0.0000000e+00 -1.2690457e-02 
3.8312016e-02 1.0000000e-02 -1.2663038e-02 
2.7063712e-02 0.0000000e+00 2.3258772e-02 
3.8312016e-02 0.0000000e+00 -1.2663038e-02 
2.8786417e-02 1.0000000e-02 2.4019532e-02 
3.9956032e-02 1.0000000e-02 -1.2635752e-02 
2.8786417e-02 0.0000000e+00 2.4019532e-02 
3.9956032e-02 0.0000000e+00 -1.2635752e-02 
3.0521135e-02 1.0000000e-02 2.4752486e-02 
4.1600048e-02 1.0000000e-02 -1.2608467e-02 
3.0521135e-02 0.0000000e+00 2.4752486e-02 
4.1600048e-02 0.0000000e+00 -1.2608467e-02 
3.2266919e-02 1.0000000e-02 2.5458676e-02 
4.3299814e-02 1.0000000e-02 -1.2580255e-02 
3.2266919e-02 0.0000000e+00 2.5458676e-02 
4.3299814e-02 0.0000000e+00 -1.2580255e-02 
3.4022902e-02 1.0000000e-02 2.6139111e-02 
4.5339533e-02 1.0000000e-02 -1.2546402e-02 
3.4022902e-02 0.0000000e+00 2.6139111e-02 
4.5339533e-02 0.0000000e+00 -1.2546402e-02 
3.5788340e-02 1.0000000e-02 2.6794623e-02 
4.7787196e-02 1.0000000e-02 -1.2505778e-02 
3.5788340e-02 0.0000000e+00 2.6794623e-02 
3.7562554e-02 1.0000000e-02 2.7425996e-02 
4.7787196e-02 0.0000000e+00 -1.2505778e-02 
3.7562554e-02 0.0000000e+00 2.7425996e-02 
3.9344928e-02 1.0000000e-02 2.8033950e-02 
5.0379113e-02 1.0000000e-02 -1.2462760e-02 
3.9344928e-02 0.0000000e+00 2.8033950e-02 
5.0379113e-02 0.0000000e+00 -1.2462760e-02 
4.1134916e-02 1.0000000e-02 2.8619109e-02 
5.2971029e-02 1.0000000e-02 -1.2419741e-02 
4.1134916e-02 0.0000000e+00 2.8619109e-02 
5.2971029e-02 0.0000000e+00 -1.2419741e-02 
4.2932026e-02 1.0000000e-02 2.9182016e-02 
4.2932026e-02 0.0000000e+00 2.9182016e-02 
5.5562946e-02 1.0000000e-02 -1.2376723e-02 
4.5339682e-02 1.0000000e-02 2.9899231e-02 
5.5562946e-02 0.0000000e+00 -1.2376723e-02 
4.5339682e-02 0.0000000e+00 2.9899231e-02 
5.8154863e-02 1.0000000e-02 -1.2333705e-02 
4.7758221e-02 1.0000000e-02 3.0578844e-02 
5.8154863e-02 0.0000000e+00 -1.2333705e-02 
4.7758221e-02 0.0000000e+00 3.0578844e-02 
6.0746779e-02 1.0000000e-02 -1.2290686e-02 
5.0186760e-02 1.0000000e-02 3.1221807e-02 
6.0746779e-02 0.0000000e+00 -1.2290686e-02 
5.0186760e-02 0.0000000e+00 3.1221807e-02 
6.3338696e-02 1.0000000e-02 -1.2247668e-02 
5.2624513e-02 1.0000000e-02 3.1828903e-02 
6.3338696e-02 0.0000000e+00 -1.2247668e-02 
5.2624513e-02 0.0000000e+00 3.1828903e-02 
5.5070762e-02 1.0000000e-02 3.2400804e-02 
6.5930613e-02 1.0000000e-02 -1.2204650e-02 
5.5070762e-02 0.0000000e+00 3.2400804e-02 
6.5930613e-02 0.0000000e+00 -1.2204650e-02 
5.7524847e-02 1.0000000e-02 3.2938082e-02 
6.8522529e-02 1.0000000e-02 -1.2161631e-02 
5.7524847e-02 0.0000000e+00 3.2938082e-02 
6.8522529e-02 0.0000000e+00 -1.2161631e-02 
5.9986169e-02 1.0000000e-02 3.3441170e-02 
7.1114446e-02 1.0000000e-02 -1.2118613e-02 
5.9986169e-02 0.0000000e+00 3.3441170e-02 
7.1114446e-02 0.0000000e+00 -1.2118613e-02 
6.2454163e-02 1.0000000e-02 3.3910436e-02 
6.2454163e-02 0.0000000e+00 3.3910436e-02 
7.3706362e-02 1.0000000e-02 -1.2075595e-02 
7.3706362e-02 0.0000000e+00 -1.2075595e-02 
6.4928303e-02 1.0000000e-02 3.4346139e-02 
6.4928303e-02 0.0000000e+00 3.4346139e-02 
7.6298279e-02 1.0000000e-02 -1.2032577e-02 
7.6298279e-02 0.0000000e+00 -1.2032577e-02 
6.7408092e-02 1.0000000e-02 3.4748446e-02 
6.7408092e-02 0.0000000e+00 3.4748446e-02 
7.8890196e-02 1.0000000e-02 -1.1989558e-02 
7.8890196e-02 0.0000000e+00 -1.1989558e-02 
6.9893057e-02 1.0000000e-02 3.5117436e-02 
6.9893057e-02 0.0000000e+00 3.5117436e-02 
8.1482112e-02 1.0000000e-02 -1.1946540e-02 
8.1482112e-02 0.0000000e+00 -1.1946540e-02 
7.2382742e-02 1.0000000e-02 3.5453098e-02 
7.2382742e-02 0.0000000e+00 3.5453098e-02 
8.4074029e-02 1.0000000e-02 -1.1903522e-02 
7.4876707e-02 1.0000000e-02 3.5755332e-02 
8.4074029e-02 0.0000000e+00 -1.1903522e-02 
7.4876707e-02 0.0000000e+00 3.5755332e-02 
8.6665946e-02 1.0000000e-02 -1.1860503e-02 
7.7374516e-02 1.0000000e-02 3.6023948e-02 
8.6665946e-02 0.0000000e+00 -1.1860503e-02 
7.7374516e-02 0.0000000e+00 3.6023948e-02 
8.9257862e-02 1.0000000e-02 -1.1817485e-02 
7.9875738e-02 1.0000000e-02 3.6258665e-02 
8.9257862e-02 0.0000000e+00 -1.1817485e-02 
7.9875738e-02 0.0000000e+00 3.6258665e-02 
8.2379940e-02 1.0000000e-02 3.6459105e-02 
9.1849779e-02 1.0000000e-02 -1.1774467e-02 
8.2379940e-02 0.0000000e+00 3.6459105e-02 
9.1849779e-02 0.0000000e+00 -1.1774467e-02 
8.4886681e-02 1.0000000e-02 3.6624786e-02 
9.4441696e-02 1.0000000e-02 -1.1731448e-02 
8.4886681e-02 0.0000000e+00 3.6624786e-02 
9.4441696e-02 0.0000000e+00 -1.1731448e-02 
8.7395510e-02 1.0000000e-02 3.6755108e-02 
8.7395510e-02 0.0000000e+00 3.6755108e-02 
9.7033612e-02 1.0000000e-02 -1.1688430e-02 
9.7033612e-02 0.0000000e+00 -1.1688430e-02 
8.9905951e-02 1.0000000e-02 3.6849401e-02 
8.9905951e-02 0.0000000e+00 3.6849401e-02 
9.9625529e-02 1.0000000e-02 -1.1645412e-02 
9.9625529e-02 0.0000000e+00 -1.1645412e-02 
9.2417505e-02 1.0000000e-02 3.6906832e-02 
9.2417505e-02 0.0000000e+00 3.6906832e-02 
1.0221745e-01 1.0000000e-02 -1.1602393e-02 
1.0221745e-01 0.0000000e+00 -1.1602393e-02 
9.4929640e-02 1.0000000e-02 3.6926425e-02 
9.4929640e-02 0.0000000e+00 3.6926425e-02 
1.0480936e-01 1.0000000e-02 -1.1559375e-02 
1.0480936e-01 0.0000000e+00 -1.1559375e-02 
9.7441776e-02 1.0000000e-02 3.6907077e-02 
9.7441776e-02 0.0000000e+00 3.6907077e-02 
1.0740128e-01 1.0000000e-02 -1.1516357e-02 
1.0740128e-01 0.0000000e+00 -1.1516357e-02 
9.9953281e-02 1.0000000e-02 3.6847529e-02 
9.9953281e-02 0.0000000e+00 3.6847529e-02 
1.0999320e-01 1.0000000e-02 -1.1473339e-02 
1.0246345e-01 1.0000000e-02 3.6746314e-02 
1.0999320e-01 0.0000000e+00 -1.1473339e-02 
1.0246345e-01 0.0000000e+00 3.6746314e-02 
1.0497150e-01 1.0000000e-02 3.6601738e-02 
1.1258511e-01 1.0000000e-02 -1.1430320e-02 
1.0497150e-01 0.0000000e+00 3.6601738e-02 
1.1258511e-01 0.0000000e+00 -1.1430320e-02 
1.0747666e-01 1.0000000e-02 3.6413638e-02 
1.1517703e-01 1.0000000e-02 -1.1387302e-02 
1.0747666e-01 0.0000000e+00 3.6413638e-02 
[...]
POINT_DATA 824
FIELD FieldData 2
DISPLACEMENT 3 824  float
0.0000000e+00 0.0000000e+00 0.0000000e+00 
0.0000000e+00 0.0000000e+00 0.0000000e+00 
0.0000000e+00 0.0000000e+00 0.0000000e+00 
0.0000000e+00 0.0000000e+00 0.0000000e+00 
0.0000000e+00 0.0000000e+00 0.0000000e+00 
0.0000000e+00 0.0000000e+00 0.0000000e+00 
0.0000000e+00 0.0000000e+00 0.0000000e+00 
0.0000000e+00 0.0000000e+00 0.0000000e+00 
0.0000000e+00 0.0000000e+00 0.0000000e+00 
0.0000000e+00 0.0000000e+00 0.0000000e+00 
0.0000000e+00 0.0000000e+00 0.0000000e+00 
0.0000000e+00 0.0000000e+00 0.0000000e+00 
0.0000000e+00 0.0000000e+00 0.0000000e+00 
0.0000000e+00 0.0000000e+00 0.0000000e+00 
0.0000000e+00 0.0000000e+00 0.0000000e+00 
0.0000000e+00 0.0000000e+00 0.0000000e+00 
0.0000000e+00 0.0000000e+00 0.0000000e+00 
0.0000000e+00 0.0000000e+00 0.0000000e+00 
0.0000000e+00 0.0000000e+00 0.0000000e+00 
0.0000000e+00 0.0000000e+00 0.0000000e+00 
0.0000000e+00 0.0000000e+00 0.0000000e+00 
0.0000000e+00 0.0000000e+00 0.0000000e+00 
0.0000000e+00 0.0000000e+00 0.0000000e+00 
0.0000000e+00 0.0000000e+00 0.0000000e+00 
0.0000000e+00 0.0000000e+00 0.0000000e+00 
0.0000000e+00 0.0000000e+00 0.0000000e+00 
0.0000000e+00 0.0000000e+00 0.0000000e+00 
0.0000000e+00 0.0000000e+00 0.0000000e+00 
0.0000000e+00 0.0000000e+00 0.0000000e+00 
0.0000000e+00 0.0000000e+00 0.0000000e+00 
0.0000000e+00 0.0000000e+00 0.0000000e+00 
0.0000000e+00 0.0000000e+00 0.0000000e+00 
0.0000000e+00 0.0000000e+00 0.0000000e+00 
0.0000000e+00 0.0000000e+00 0.0000000e+00 
0.0000000e+00 0.0000000e+00 0.0000000e+00 
0.0000000e+00 0.0000000e+00 0.0000000e+00 
0.0000000e+00 0.0000000e+00 0.0000000e+00 
0.0000000e+00 0.0000000e+00 0.0000000e+00 
0.0000000e+00 0.0000000e+00 0.0000000e+00 
0.0000000e+00 0.0000000e+00 0.0000000e+00 
0.0000000e+00 0.0000000e+00 0.0000000e+00 
0.0000000e+00 0.0000000e+00 0.0000000e+00 
0.0000000e+00 0.0000000e+00 0.0000000e+00 
0.0000000e+00 0.0000000e+00 0.0000000e+00 
0.0000000e+00 0.0000000e+00 0.0000000e+00 
0.0000000e+00 0.0000000e+00 0.0000000e+00 
0.0000000e+00 0.0000000e+00 0.0000000e+00 
0.0000000e+00 0.0000000e+00 0.0000000e+00 
0.0000000e+00 0.0000000e+00 0.0000000e+00 
0.0000000e+00 0.0000000e+00 0.0000000e+00 
0.0000000e+00 0.0000000e+00 0.0000000e+00 
0.0000000e+00 0.0000000e+00 0.0000000e+00 
0.0000000e+00 0.0000000e+00 0.0000000e+00 
0.0000000e+00 0.0000000e+00 0.0000000e+00 
0.0000000e+00 0.0000000e+00 0.0000000e+00 
0.0000000e+00 0.0000000e+00 0.0000000e+00 
0.0000000e+00 0.0000000e+00 0.0000000e+00 
0.0000000e+00 0.0000000e+00 0.0000000e+00 
0.0000000e+00 0.0000000e+00 0.0000000e+00 
0.0000000e+00 0.0000000e+00 0.0000000e+00 
0.0000000e+00 0.0000000e+00 0.0000000e+00 
0.0000000e+00 0.0000000e+00 0.0000000e+00 
0.0000000e+00 0.0000000e+00 0.0000000e+00 
0.0000000e+00 0.0000000e+00 0.0000000e+00 
0.0000000e+00 0.0000000e+00 0.0000000e+00 
0.0000000e+00 0.0000000e+00 0.0000000e+00 
0.0000000e+00 0.0000000e+00 0.0000000e+00 
0.0000000e+00 0.0000000e+00 0.0000000e+00 
0.0000000e+00 0.0000000e+00 0.0000000e+00 
0.0000000e+00 0.0000000e+00 0.0000000e+00 
0.0000000e+00 0.0000000e+00 0.0000000e+00 
0.0000000e+00 0.0000000e+00 0.0000000e+00 
0.0000000e+00 0.0000000e+00 0.0000000e+00 
0.0000000e+00 0.0000000e+00 0.0000000e+00 
0.0000000e+00 0.0000000e+00 0.0000000e+00 
0.0000000e+00 0.0000000e+00 0.0000000e+00 
0.0000000e+00 0.0000000e+00 0.0000000e+00 
0.0000000e+00 0.0000000e+00 0.0000000e+00 
0.0000000e+00 0.0000000e+00 0.0000000e+00 
0.0000000e+00 0.0000000e+00 0.0000000e+00 
0.0000000e+00 0.0000000e+00 0.0000000e+00 
0.0000000e+00 0.0000000e+00 0.0000000e+00 
0.0000000e+00 0.0000000e+00 0.0000000e+00 
0.0000000e+00 0.0000000e+00 0.0000000e+00 
0.0000000e+00 0.0000000e+00 0.0000000e+00 
0.0000000e+00 0.0000000e+00 0.0000000e+00 
0.0000000e+00 0.0000000e+00 0.0000000e+00 
0.0000000e+00 0.0000000e+00 0.0000000e+00 
0.0000000e+00 0.0000000e+00 0.0000000e+00 
0.0000000e+00 0.0000000e+00 0.0000000e+00 
0.0000000e+00 0.0000000e+00 0.0000000e+00 
0.0000000e+00 0.0000000e+00 0.0000000e+00 
0.0000000e+00 0.0000000e+00 0.0000000e+00 
0.0000000e+00 0.0000000e+00 0.0000000e+00 
0.0000000e+00 0.0000000e+00 0.0000000e+00 
0.0000000e+00 0.0000000e+00 0.0000000e+00 
0.0000000e+00 0.0000000e+00 0.0000000e+00 
9.7649788e-04 0.0000000e+00 -2.3140014e-03 
0.0000000e+00 0.0000000e+00 0.0000000e+00 
9.7649788e-04 0.0000000e+00 -2.3140014e-03 
0.0000000e+00 0.0000000e+00 0.0000000e+00 
1.9483203e-03 0.0000000e+00 -4.6247564e-03 
0.0000000e+00 0.0000000e+00 0.0000000e+00 
1.9483203e-03 0.0000000e+00 -4.6247564e-03 
0.0000000e+00 0.0000000e+00 0.0000000e+00 
2.9477626e-03 0.0000000e+00 -7.0102326e-03 
0.0000000e+00 0.0000000e+00 0.0000000e+00 
2.9477626e-03 0.0000000e+00 -7.0102326e-03 
0.0000000e+00 0.0000000e+00 0.0000000e+00 
4.1391760e-03 0.0000000e+00 -9.8675058e-03 
0.0000000e+00 0.0000000e+00 0.0000000e+00 
4.1391760e-03 0.0000000e+00 -9.8675058e-03 
0.0000000e+00 0.0000000e+00 0.0000000e+00 
5.5546378e-03 0.0000000e+00 -1.3287267e-02 
0.0000000e+00 0.0000000e+00 0.0000000e+00 
0.0000000e+00 0.0000000e+00 0.0000000e+00 
5.5546378e-03 0.0000000e+00 -1.3287267e-02 
0.0000000e+00 0.0000000e+00 0.0000000e+00 
8.5424689e-04 0.0000000e+00 -1.9111011e-03 
7.0336230e-03 0.0000000e+00 -1.6896517e-02 
8.5424689e-04 0.0000000e+00 -1.9111011e-03 
7.0336230e-03 0.0000000e+00 -1.6896517e-02 
1.7132931e-03 0.0000000e+00 -3.8399180e-03 
8.4910999e-03 0.0000000e+00 -2.0492820e-02 
1.7132931e-03 0.0000000e+00 -3.8399180e-03 
8.4910999e-03 0.0000000e+00 -2.0492820e-02 
2.5768076e-03 0.0000000e+00 -5.7861063e-03 
2.5768076e-03 0.0000000e+00 -5.7861063e-03 
9.9264540e-03 0.0000000e+00 -2.4075854e-02 
3.7338752e-03 0.0000000e+00 -8.4080696e-03 
9.9264540e-03 0.0000000e+00 -2.4075854e-02 
3.7338752e-03 0.0000000e+00 -8.4080696e-03 
1.1339163e-02 0.0000000e+00 -2.7645173e-02 
4.8953349e-03 0.0000000e+00 -1.1058407e-02 
1.1339163e-02 0.0000000e+00 -2.7645173e-02 
4.8953349e-03 0.0000000e+00 -1.1058407e-02 
1.2728529e-02 0.0000000e+00 -3.1200198e-02 
6.0610045e-03 0.0000000e+00 -1.3736755e-02 
1.2728529e-02 0.0000000e+00 -3.1200198e-02 
6.0610045e-03 0.0000000e+00 -1.3736755e-02 
1.4093866e-02 0.0000000e+00 -3.4740479e-02 
7.2305683e-03 0.0000000e+00 -1.6442752e-02 
1.4093866e-02 0.0000000e+00 -3.4740479e-02 
7.2305683e-03 0.0000000e+00 -1.6442752e-02 
8.4040662e-03 0.0000000e+00 -1.9176346e-02 
1.5434690e-02 0.0000000e+00 -3.8265664e-02 
8.4040662e-03 0.0000000e+00 -1.9176346e-02 
1.5434690e-02 0.0000000e+00 -3.8265664e-02 
9.5823884e-03 0.0000000e+00 -2.1938086e-02 
1.6751019e-02 0.0000000e+00 -4.1775578e-02 
9.5823884e-03 0.0000000e+00 -2.1938086e-02 
1.6751019e-02 0.0000000e+00 -4.1775578e-02 
1.0765789e-02 0.0000000e+00 -2.4728169e-02 
1.8042644e-02 0.0000000e+00 -4.5269904e-02 
1.0765789e-02 0.0000000e+00 -2.4728169e-02 
1.8042644e-02 0.0000000e+00 -4.5269904e-02 
1.1953452e-02 0.0000000e+00 -2.7546135e-02 
1.1953452e-02 0.0000000e+00 -2.7546135e-02 
1.9308829e-02 0.0000000e+00 -4.8748099e-02 
1.9308829e-02 0.0000000e+00 -4.8748099e-02 
1.3145053e-02 0.0000000e+00 -3.0391951e-02 
1.3145053e-02 0.0000000e+00 -3.0391951e-02 
2.0548993e-02 0.0000000e+00 -5.2209713e-02 
2.0548993e-02 0.0000000e+00 -5.2209713e-02 
1.4341252e-02 0.0000000e+00 -3.3266294e-02 
1.4341252e-02 0.0000000e+00 -3.3266294e-02 
2.1762842e-02 0.0000000e+00 -5.5654261e-02 
2.1762842e-02 0.0000000e+00 -5.5654261e-02 
1.5542312e-02 0.0000000e+00 -3.6169606e-02 
1.5542312e-02 0.0000000e+00 -3.6169606e-02 
2.2950123e-02 0.0000000e+00 -5.9081279e-02 
2.2950123e-02 0.0000000e+00 -5.9081279e-02 
1.6747587e-02 0.0000000e+00 -3.9101798e-02 
1.6747587e-02 0.0000000e+00 -3.9101798e-02 
2.4110115e-02 0.0000000e+00 -6.2490198e-02 
1.7957042e-02 0.0000000e+00 -4.2063275e-02 
2.4110115e-02 0.0000000e+00 -6.2490198e-02 
1.7957042e-02 0.0000000e+00 -4.2063275e-02 
2.5242018e-02 0.0000000e+00 -6.5880377e-02 
1.9171343e-02 0.0000000e+00 -4.5054992e-02 
2.5242018e-02 0.0000000e+00 -6.5880377e-02 
1.9171343e-02 0.0000000e+00 -4.5054992e-02 
2.6345644e-02 0.0000000e+00 -6.9251446e-02 
2.0390614e-02 0.0000000e+00 -4.8077612e-02 
2.6345644e-02 0.0000000e+00 -6.9251446e-02 
2.0390614e-02 0.0000000e+00 -4.8077612e-02 
2.1614336e-02 0.0000000e+00 -5.1131450e-02 
2.7420609e-02 0.0000000e+00 -7.2602894e-02 
2.1614336e-02 0.0000000e+00 -5.1131450e-02 
2.7420609e-02 0.0000000e+00 -7.2602894e-02 
2.2842371e-02 0.0000000e+00 -5.4217205e-02 
2.8465975e-02 0.0000000e+00 -7.5933944e-02 
2.2842371e-02 0.0000000e+00 -5.4217205e-02 
2.8465975e-02 0.0000000e+00 -7.5933944e-02 
2.4075371e-02 0.0000000e+00 -5.7336243e-02 
2.4075371e-02 0.0000000e+00 -5.7336243e-02 
2.9481187e-02 0.0000000e+00 -7.9244064e-02 
2.9481187e-02 0.0000000e+00 -7.9244064e-02 
2.5314033e-02 0.0000000e+00 -6.0490020e-02 
2.5314033e-02 0.0000000e+00 -6.0490020e-02 
3.0466297e-02 0.0000000e+00 -8.2532857e-02 
3.0466297e-02 0.0000000e+00 -8.2532857e-02 
2.6558801e-02 0.0000000e+00 -6.3679995e-02 
2.6558801e-02 0.0000000e+00 -6.3679995e-02 
3.1421176e-02 0.0000000e+00 -8.5799791e-02 
3.1421176e-02 0.0000000e+00 -8.5799791e-02 
2.7809371e-02 0.0000000e+00 -6.6907270e-02 
2.7809371e-02 0.0000000e+00 -6.6907270e-02 
3.2345224e-02 0.0000000e+00 -8.9044252e-02 
3.2345224e-02 0.0000000e+00 -8.9044252e-02 
2.9064983e-02 0.0000000e+00 -7.0172779e-02 
2.9064983e-02 0.0000000e+00 -7.0172779e-02 
3.3237865e-02 0.0000000e+00 -9.2265662e-02 
3.3237865e-02 0.0000000e+00 -9.2265662e-02 
3.0325517e-02 0.0000000e+00 -7.3478087e-02 
3.0325517e-02 0.0000000e+00 -7.3478087e-02 
3.4098731e-02 0.0000000e+00 -9.5463406e-02 
3.1591129e-02 0.0000000e+00 -7.6825199e-02 
3.4098731e-02 0.0000000e+00 -9.5463406e-02 
3.1591129e-02 0.0000000e+00 -7.6825199e-02 
3.2860519e-02 0.0000000e+00 -8.0215393e-02 
3.4927274e-02 0.0000000e+00 -9.8636710e-02 
3.2860519e-02 0.0000000e+00 -8.0215393e-02 
3.4927274e-02 0.0000000e+00 -9.8636710e-02 
3.4130655e-02 0.0000000e+00 -8.3647337e-02 
3.5722774e-02 0.0000000e+00 -1.0178483e-01 
3.4130655e-02 0.0000000e+00 -8.3647337e-02 
3.5722774e-02 0.0000000e+00 -1.0178483e-01 
3.5397132e-02 0.0000000e+00 -8.7088517e-02 
3.5397132e-02 0.0000000e+00 -8.7088517e-02 
3.6484736e-02 0.0000000e+00 -1.0490713e-01 
3.6484736e-02 0.0000000e+00 -1.0490713e-01 
3.6658464e-02 0.0000000e+00 -9.0526131e-02 
3.6658464e-02 0.0000000e+00 -9.0526131e-02 
3.7212824e-02 0.0000000e+00 -1.0800272e-01 
3.7212824e-02 0.0000000e+00 -1.0800272e-01 
3.7913231e-02 0.0000000e+00 -9.3958927e-02 
3.7913231e-02 0.0000000e+00 -9.3958927e-02 
3.7906761e-02 0.0000000e+00 -1.1107077e-01 
3.7906761e-02 0.0000000e+00 -1.1107077e-01 
3.9157963e-02 0.0000000e+00 -9.7384151e-02 
3.9157963e-02 0.0000000e+00 -9.7384151e-02 
3.8565936e-02 0.0000000e+00 -1.1411050e-01 
3.8565936e-02 0.0000000e+00 -1.1411050e-01 
4.0388707e-02 0.0000000e+00 -1.0079884e-01 
4.0388707e-02 0.0000000e+00 -1.0079884e-01 
3.9189411e-02 0.0000000e+00 -1.1712080e-01 
3.9189411e-02 0.0000000e+00 -1.1712080e-01 
4.1601736e-02 0.0000000e+00 -1.0420036e-01 
4.1601736e-02 0.0000000e+00 -1.0420036e-01 
3.9776473e-02 0.0000000e+00 -1.2010071e-01 
4.2792701e-02 0.0000000e+00 -1.0758697e-01 
3.9776473e-02 0.0000000e+00 -1.2010071e-01 
4.2792701e-02 0.0000000e+00 -1.0758697e-01 
4.3958400e-02 0.0000000e+00 -1.1095795e-01 
4.0326813e-02 0.0000000e+00 -1.2304955e-01 
4.3958400e-02 0.0000000e+00 -1.1095795e-01 
4.0326813e-02 0.0000000e+00 -1.2304955e-01 
4.5090869e-02 0.0000000e+00 -1.1430883e-01 
4.0839777e-02 0.0000000e+00 -1.2596633e-01 
4.5090869e-02 0.0000000e+00 -1.1430883e-01 
4.0839777e-02 0.0000000e+00 -1.2596633e-01 
4.6176239e-02 0.0000000e+00 -1.1763165e-01 
4.6176239e-02 0.0000000e+00 -1.1763165e-01 
4.1314334e-02 0.0000000e+00 -1.2884969e-01 
4.1314334e-02 0.0000000e+00 -1.2884969e-01 
4.7199582e-02 0.0000000e+00 -1.2092179e-01 
4.7199582e-02 0.0000000e+00 -1.2092179e-01 
4.1750062e-02 0.0000000e+00 -1.3169849e-01 
4.1750062e-02 0.0000000e+00 -1.3169849e-01 
4.8145927e-02 0.0000000e+00 -1.2417444e-01 
4.8145927e-02 0.0000000e+00 -1.2417444e-01 
4.2146698e-02 0.0000000e+00 -1.3451167e-01 
4.2146698e-02 0.0000000e+00 -1.3451167e-01 
4.9005465e-02 0.0000000e+00 -1.2738306e-01 
4.9005465e-02 0.0000000e+00 -1.2738306e-01 
4.2503540e-02 0.0000000e+00 -1.3728795e-01 
4.2503540e-02 0.0000000e+00 -1.3728795e-01 
4.9771944e-02 0.0000000e+00 -1.3054178e-01 
4.9771944e-02 0.0000000e+00 -1.3054178e-01 
4.2820245e-02 0.0000000e+00 -1.4002631e-01 
4.2820245e-02 0.0000000e+00 -1.4002631e-01 
5.0462812e-02 0.0000000e+00 -1.3365414e-01 
5.0462812e-02 0.0000000e+00 -1.3365414e-01 
4.3096277e-02 0.0000000e+00 -1.4272566e-01 
4.3096277e-02 0.0000000e+00 -1.4272566e-01 
5.1099341e-02 0.0000000e+00 -1.3672670e-01 
5.1099341e-02 0.0000000e+00 -1.3672670e-01 
4.3330765e-02 0.0000000e+00 -1.4538455e-01 
4.3330765e-02 0.0000000e+00 -1.4538455e-01 
5.1684418e-02 0.0000000e+00 -1.3975937e-01 
5.1684418e-02 0.0000000e+00 -1.3975937e-01 
4.3523240e-02 0.0000000e+00 -1.4800157e-01 
5.2221465e-02 0.0000000e+00 -1.4275283e-01 
4.3523240e-02 0.0000000e+00 -1.4800157e-01 
5.2221465e-02 0.0000000e+00 -1.4275283e-01 
4.3673475e-02 0.0000000e+00 -1.5057548e-01 
5.2714058e-02 0.0000000e+00 -1.4570650e-01 
4.3673475e-02 0.0000000e+00 -1.5057548e-01 
5.2714058e-02 0.0000000e+00 -1.4570650e-01 
5.3164382e-02 0.0000000e+00 -1.4861900e-01 
4.3781267e-02 0.0000000e+00 -1.5310497e-01 
5.3164382e-02 0.0000000e+00 -1.4861900e-01 
4.3781267e-02 0.0000000e+00 -1.5310497e-01 
5.3572468e-02 0.0000000e+00 -1.5148899e-01 
5.3572468e-02 0.0000000e+00 -1.5148899e-01 
4.3846593e-02 0.0000000e+00 -1.5558882e-01 
4.3846593e-02 0.0000000e+00 -1.5558882e-01 
5.3938327e-02 0.0000000e+00 -1.5431530e-01 
5.3938327e-02 0.0000000e+00 -1.5431530e-01 
4.3869748e-02 0.0000000e+00 -1.5802613e-01 
4.3869748e-02 0.0000000e+00 -1.5802613e-01 
5.4260787e-02 0.0000000e+00 -1.5709639e-01 
5.4260787e-02 0.0000000e+00 -1.5709639e-01 
4.3851011e-02 0.0000000e+00 -1.6041599e-01 
4.3851011e-02 0.0000000e+00 -1.6041599e-01 
5.4538432e-02 0.0000000e+00 -1.5983039e-01 
5.4538432e-02 0.0000000e+00 -1.5983039e-01 
4.3789983e-02 0.0000000e+00 -1.6275682e-01 
4.3789983e-02 0.0000000e+00 -1.6275682e-01 
5.4770729e-02 0.0000000e+00 -1.6251553e-01 
5.4770729e-02 0.0000000e+00 -1.6251553e-01 
4.3686065e-02 0.0000000e+00 -1.6504674e-01 
4.3686065e-02 0.0000000e+00 -1.6504674e-01 
5.4957242e-02 0.0000000e+00 -1.6515002e-01 
5.4957242e-02 0.0000000e+00 -1.6515002e-01 
4.3539067e-02 0.0000000e+00 -1.6728403e-01 
4.3539067e-02 0.0000000e+00 -1.6728403e-01 
5.5098971e-02 0.0000000e+00 -1.6773282e-01 
5.5098971e-02 0.0000000e+00 -1.6773282e-01 
4.3349271e-02 0.0000000e+00 -1.6946743e-01 
4.3349271e-02 0.0000000e+00 -1.6946743e-01 
5.5197022e-02 0.0000000e+00 -1.7026302e-01 
5.5197022e-02 0.0000000e+00 -1.7026302e-01 
4.3117196e-02 0.0000000e+00 -1.7159590e-01 
4.3117196e-02 0.0000000e+00 -1.7159590e-01 
5.5251264e-02 0.0000000e+00 -1.7273900e-01 
5.5251264e-02 0.0000000e+00 -1.7273900e-01 
4.2842989e-02 0.0000000e+00 -1.7366787e-01 
4.2842989e-02 0.0000000e+00 -1.7366787e-01 
5.5261703e-02 0.0000000e+00 -1.7515930e-01 
5.5261703e-02 0.0000000e+00 -1.7515930e-01 
4.2526845e-02 0.0000000e+00 -1.7568177e-01 
4.2526845e-02 0.0000000e+00 -1.7568177e-01 
5.5226637e-02 0.0000000e+00 -1.7752069e-01 
5.5226637e-02 0.0000000e+00 -1.7752069e-01 
4.2169426e-02 0.0000000e+00 -1.7763666e-01 
4.2169426e-02 0.0000000e+00 -1.7763666e-01 
5.5144185e-02 0.0000000e+00 -1.7981947e-01 
5.5144185e-02 0.0000000e+00 -1.7981947e-01 
4.1771202e-02 0.0000000e+00 -1.7953151e-01 
5.5014400e-02 0.0000000e+00 -1.8205364e-01 
4.1771202e-02 0.0000000e+00 -1.7953151e-01 
5.5014400e-02 0.0000000e+00 -1.8205364e-01 
5.4837599e-02 0.0000000e+00 -1.8422146e-01 
4.1332507e-02 0.0000000e+00 -1.8136500e-01 
5.4837599e-02 0.0000000e+00 -1.8422146e-01 
4.1332507e-02 0.0000000e+00 -1.8136500e-01 
5.4614172e-02 0.0000000e+00 -1.8632091e-01 
4.0853678e-02 0.0000000e+00 -1.8313552e-01 
5.4614172e-02 0.0000000e+00 -1.8632091e-01 
4.0853678e-02 0.0000000e+00 -1.8313552e-01 
5.4344485e-02 0.0000000e+00 -1.8834977e-01 
5.4344485e-02 0.0000000e+00 -1.8834977e-01 
4.0335035e-02 0.0000000e+00 -1.8484137e-01 
4.0335035e-02 0.0000000e+00 -1.8484137e-01 
5.4028843e-02 0.0000000e+00 -1.9030567e-01 
5.4028843e-02 0.0000000e+00 -1.9030567e-01 
3.9777164e-02 0.0000000e+00 -1.8648134e-01 
3.9777164e-02 0.0000000e+00 -1.8648134e-01 
5.3667756e-02 0.0000000e+00 -1.9218629e-01 
5.3667756e-02 0.0000000e+00 -1.9218629e-01 
3.9181023e-02 0.0000000e+00 -1.8805484e-01 
3.9181023e-02 0.0000000e+00 -1.8805484e-01 
5.3262756e-02 0.0000000e+00 -1.9399062e-01 
5.3262756e-02 0.0000000e+00 -1.9399062e-01 
3.8547650e-02 0.0000000e+00 -1.8956111e-01 
3.8547650e-02 0.0000000e+00 -1.8956111e-01 
5.2815350e-02 0.0000000e+00 -1.9571751e-01 
5.2815350e-02 0.0000000e+00 -1.9571751e-01 
3.7877718e-02 0.0000000e+00 -1.9099860e-01 
3.7877718e-02 0.0000000e+00 -1.9099860e-01 
5.2326461e-02 0.0000000e+00 -1.9736488e-01 
5.2326461e-02 0.0000000e+00 -1.9736488e-01 
3.7173289e-02 0.0000000e+00 -1.9236802e-01 
3.7173289e-02 0.0000000e+00 -1.9236802e-01 
5.1797251e-02 0.0000000e+00 -1.9893089e-01 
5.1797251e-02 0.0000000e+00 -1.9893089e-01 
3.6436355e-02 0.0000000e+00 -1.9367002e-01 
3.6436355e-02 0.0000000e+00 -1.9367002e-01 
5.1229667e-02 0.0000000e+00 -2.0041433e-01 
5.1229667e-02 0.0000000e+00 -2.0041433e-01 
3.5667360e-02 0.0000000e+00 -1.9490251e-01 
3.5667360e-02 0.0000000e+00 -1.9490251e-01 
5.0626130e-02 0.0000000e+00 -2.0181505e-01 
5.0626130e-02 0.0000000e+00 -2.0181505e-01 
3.4867093e-02 0.0000000e+00 -1.9606399e-01 
3.4867093e-02 0.0000000e+00 -1.9606399e-01 
4.9988416e-02 0.0000000e+00 -2.0313243e-01 
4.9988416e-02 0.0000000e+00 -2.0313243e-01 
3.4036703e-02 0.0000000e+00 -1.9715344e-01 
3.4036703e-02 0.0000000e+00 -1.9715344e-01 
4.9318016e-02 0.0000000e+00 -2.0436515e-01 
4.9318016e-02 0.0000000e+00 -2.0436515e-01 
3.3177076e-02 0.0000000e+00 -1.9816910e-01 
3.3177076e-02 0.0000000e+00 -1.9816910e-01 
4.8615385e-02 0.0000000e+00 -2.0550947e-01 
4.8615385e-02 0.0000000e+00 -2.0550947e-01 
3.2289356e-02 0.0000000e+00 -1.9911004e-01 
3.2289356e-02 0.0000000e+00 -1.9911004e-01 
4.7880942e-02 0.0000000e+00 -2.0656087e-01 
4.7880942e-02 0.0000000e+00 -2.0656087e-01 
3.1375133e-02 0.0000000e+00 -1.9997655e-01 
3.1375133e-02 0.0000000e+00 -1.9997655e-01 
4.7120336e-02 0.0000000e+00 -2.0751339e-01 
4.7120336e-02 0.0000000e+00 -2.0751339e-01 
3.0432298e-02 0.0000000e+00 -2.0076891e-01 
3.0432298e-02 0.0000000e+00 -2.0076891e-01 
4.6171666e-02 0.0000000e+00 -2.0853282e-01 
4.6171666e-02 0.0000000e+00 -2.0853282e-01 
2.9267526e-02 0.0000000e+00 -2.0161458e-01 
2.9267526e-02 0.0000000e+00 -2.0161458e-01 
4.4986233e-02 0.0000000e+00 -2.0957504e-01 
4.4986233e-02 0.0000000e+00 -2.0957504e-01 
2.7825399e-02 0.0000000e+00 -2.0247770e-01 
2.7825399e-02 0.0000000e+00 -2.0247770e-01 
4.3503946e-02 0.0000000e+00 -2.1055717e-01 
4.3503946e-02 0.0000000e+00 -2.1055717e-01 
2.6056450e-02 0.0000000e+00 -2.0328769e-01 
2.6056450e-02 0.0000000e+00 -2.0328769e-01 
4.1883621e-02 0.0000000e+00 -2.1126776e-01 
4.1883621e-02 0.0000000e+00 -2.1126776e-01 
2.4234049e-02 0.0000000e+00 -2.0385968e-01 
2.4234049e-02 0.0000000e+00 -2.0385968e-01 
4.0218443e-02 0.0000000e+00 -2.1164279e-01 
4.0218443e-02 0.0000000e+00 -2.1164279e-01 
2.2364960e-02 0.0000000e+00 -2.0418651e-01 
2.2364960e-02 0.0000000e+00 -2.0418651e-01 
3.8524103e-02 0.0000000e+00 -2.1168293e-01 
3.8524103e-02 0.0000000e+00 -2.1168293e-01 
2.0457331e-02 0.0000000e+00 -2.0426410e-01 
2.0457331e-02 0.0000000e+00 -2.0426410e-01 
3.6816052e-02 0.0000000e+00 -2.1138894e-01 
3.6816052e-02 0.0000000e+00 -2.1138894e-01 
1.8520139e-02 0.0000000e+00 -2.0409348e-01 
1.8520139e-02 0.0000000e+00 -2.0409348e-01 
3.5109592e-02 0.0000000e+00 -2.1076068e-01 
3.5109592e-02 0.0000000e+00 -2.1076068e-01 
1.6561651e-02 0.0000000e+00 -2.0367358e-01 
1.6561651e-02 0.0000000e+00 -2.0367358e-01 
3.3419826e-02 0.0000000e+00 -2.0979832e-01 
3.3419826e-02 0.0000000e+00 -2.0979832e-01 
1.4590666e-02 0.0000000e+00 -2.0299981e-01 
1.4590666e-02 0.0000000e+00 -2.0299981e-01 
3.1761524e-02 0.0000000e+00 -2.0850553e-01 