# vtk DataFile Version 4.0
vtk output
ASCII
DATASET UNSTRUCTURED_GRID
POINTS 824 float
-6.4148600e-05 1.0000000e-02 -4.4525366e-03 
-1.0680180e-04 1.0000000e-02 -2.8088474e-03 
3.4513260e-04 1.0000000e-02 -6.0450544e-03 
1.3803532e-03 1.0000000e-02 -7.3230534e-03 
6.5829700e-05 1.0000000e-02 -1.1736922e-03 
2.7142144e-03 1.0000000e-02 -8.2851896e-03 
5.0392030e-04 1.0000000e-02 6.5784910e-04 
4.1780764e-03 1.0000000e-02 -9.0342357e-03 
1.1628646e-03 1.0000000e-02 2.4220088e-03 
5.7070961e-03 1.0000000e-02 -9.6390187e-03 
2.0046218e-03 1.0000000e-02 4.1066196e-03 
7.2731595e-03 1.0000000e-02 -1.0140047e-02 
-6.4148600e-05 0.0000000e+00 -4.4525366e-03 
-1.0680180e-04 0.0000000e+00 -2.8088474e-03 
3.4513260e-04 0.0000000e+00 -6.0450544e-03 
1.3803532e-03 0.0000000e+00 -7.3230534e-03 
6.5829700e-05 0.0000000e+00 -1.1736922e-03 
2.9952540e-03 1.0000000e-02 5.7082181e-03 
8.8622628e-03 1.0000000e-02 -1.0562311e-02 
2.7142144e-03 0.0000000e+00 -8.2851896e-03 
5.0392030e-04 0.0000000e+00 6.5784910e-04 
4.1780764e-03 0.0000000e+00 -9.0342357e-03 
1.1628646e-03 0.0000000e+00 2.4220088e-03 
1.0466628e-02 1.0000000e-02 -1.0922252e-02 
4.1067238e-03 1.0000000e-02 7.2284501e-03 
5.7070961e-03 0.0000000e+00 -9.6390187e-03 
2.0046218e-03 0.0000000e+00 4.1066196e-03 
7.2731595e-03 0.0000000e+00 -1.0140047e-02 
1.2081579e-02 1.0000000e-02 -1.1231240e-02 
5.3166988e-03 1.0000000e-02 8.6715129e-03 
2.9952540e-03 0.0000000e+00 5.7082181e-03 
8.8622628e-03 0.0000000e+00 -1.0562311e-02 
1.3704120e-02 1.0000000e-02 -1.1497501e-02 
1.0466628e-02 0.0000000e+00 -1.0922252e-02 
4.1067238e-03 0.0000000e+00 7.2284501e-03 
6.6076374e-03 1.0000000e-02 1.0042624e-02 
1.5332244e-02 1.0000000e-02 -1.1727173e-02 
1.2081579e-02 0.0000000e+00 -1.1231240e-02 
5.3166988e-03 0.0000000e+00 8.6715129e-03 
7.9658343e-03 1.0000000e-02 1.1347144e-02 
1.3704120e-02 0.0000000e+00 -1.1497501e-02 
1.6964543e-02 1.0000000e-02 -1.1925002e-02 
6.6076374e-03 0.0000000e+00 1.0042624e-02 
9.3804686e-03 1.0000000e-02 1.2590236e-02 
1.5332244e-02 0.0000000e+00 -1.1727173e-02 
1.8600004e-02 1.0000000e-02 -1.2094716e-02 
7.9658343e-03 0.0000000e+00 1.1347144e-02 
1.6964543e-02 0.0000000e+00 -1.1925002e-02 
1.0843002e-02 1.0000000e-02 1.3776601e-02 
2.0237876e-02 1.0000000e-02 -1.2239318e-02 
9.3804686e-03 0.0000000e+00 1.2590236e-02 
1.8600004e-02 0.0000000e+00 -1.2094716e-02 
1.2346566e-02 1.0000000e-02 1.4910517e-02 
2.1877591e-02 1.0000000e-02 -1.2361246e-02 
1.0843002e-02 0.0000000e+00 1.3776601e-02 
2.0237876e-02 0.0000000e+00 -1.2239318e-02 
1.3885623e-02 1.0000000e-02 1.5995768e-02 
2.3518711e-02 1.0000000e-02 -1.2462540e-02 
1.2346566e-02 0.0000000e+00 1.4910517e-02 
2.1877591e-02 0.0000000e+00 -1.2361246e-02 
2.5160890e-02 1.0000000e-02 -1.2544903e-02 
1.5455654e-02 1.0000000e-02 1.7035707e-02 
1.3885623e-02 0.0000000e+00 1.5995768e-02 
2.3518711e-02 0.0000000e+00 -1.2462540e-02 
2.6803852e-02 1.0000000e-02 -1.2609772e-02 
1.7052912e-02 1.0000000e-02 1.8033321e-02 
2.5160890e-02 0.0000000e+00 -1.2544903e-02 
1.5455654e-02 0.0000000e+00 1.7035707e-02 
2.8447376e-02 1.0000000e-02 -1.2658389e-02 
2.6803852e-02 0.0000000e+00 -1.2609772e-02 
1.7052912e-02 0.0000000e+00 1.8033321e-02 
1.8674284e-02 1.0000000e-02 1.8991246e-02 
3.0091279e-02 1.0000000e-02 -1.2691814e-02 
2.8447376e-02 0.0000000e+00 -1.2658389e-02 
1.8674284e-02 0.0000000e+00 1.8991246e-02 
2.0317149e-02 1.0000000e-02 1.9911822e-02 
3.0091279e-02 0.0000000e+00 -1.2691814e-02 
3.1735410e-02 1.0000000e-02 -1.2710971e-02 
2.0317149e-02 0.0000000e+00 1.9911822e-02 
2.1979295e-02 1.0000000e-02 2.0797113e-02 
3.1735410e-02 0.0000000e+00 -1.2710971e-02 
3.3379643e-02 1.0000000e-02 -1.2716676e-02 
2.1979295e-02 0.0000000e+00 2.0797113e-02 
2.3658832e-02 1.0000000e-02 2.1648949e-02 
3.3379643e-02 0.0000000e+00 -1.2716676e-02 
3.5023871e-02 1.0000000e-02 -1.2709629e-02 
2.3658832e-02 0.0000000e+00 2.1648949e-02 
2.5354100e-02 1.0000000e-02 2.2469029e-02 
3.5023871e-02 0.0000000e+00 -1.2709629e-02 
3.6668001e-02 1.0000000e-02 -1.2690457e-02 
2.5354100e-02 0.0000000e+00 2.2469029e-02 
2.7063712e-02 1.0000000e-02 2.3258772e-02 
3.6668001e-02 0.0000000e+00 -1.2690457e-02 
3.8312016e-02 1.0000000e-02 -1.2663038e-02 
2.7063712e-02 0.0000000e+00 2.3258772e-02 
3.8312016e-02 0.0000000e+00 -1.2663038e-02 
2.8786417e-02 1.0000000e-02 2.4019532e-02 
3.9956032e-02 1.0000000e-02 -1.2635752e-02 
2.8786417e-02 0.0000000e+00 2.4019532e-02 
3.9956032e-02 0.0000000e+00 -1.2635752e-02 
3.0521135e-02 1.0000000e-02 2.4752486e-02 
4.1600048e-02 1.0000000e-02 -1.2608467e-02 
3.0521135e-02 0.0000000e+00 2.4752486e-02 
4.1600048e-02 0.0000000e+00 -1.2608467e-02 
3.2266919e-02 1.0000000e-02 2.5458676e-02 
4.3299814e-02 1.0000000e-02 -1.2580255e-02 
3.2266919e-02 0.0000000e+00 2.5458676e-02 
4.3299814e-02 0.0000000e+00 -1.2580255e-02 
3.4022902e-02 1.0000000e-02 2.6139111e-02 
4.5339533e-02 1.0000000e-02 -1.2546402e-02 
3.4022902e-02 0.0000000e+00 2.6139111e-02 
4.5339533e-02 0.0000000e+00 -1.2546402e-02 
3.5788340e-02 1.0000000e-02 2.6794623e-02 
4.7787196e-02 1.0000000e-02 -1.2505778e-02 
3.5788340e-02 0.0000000e+00 2.6794623e-02 
3.7562554e-02 1.0000000e-02 2.7425996e-02 
4.7787196e-02 0.0000000e+00 -1.2505778e-02 
3.7562554e-02 0.0000000e+00 2.7425996e-02 
3.9344928e-02 1.0000000e-02 2.8033950e-02 
5.0379113e-02 1.0000000e-02 -1.2462760e-02 
3.9344928e-02 0.0000000e+00 2.8033950e-02 
5.0379113e-02 0.0000000e+00 -1.2462760e-02 
4.1134916e-02 1.0000000e-02 2.8619109e-02 
5.2971029e-02 1.0000000e-02 -1.2419741e-02 
4.1134916e-02 0.0000000e+00 2.8619109e-02 
5.2971029e-02 0.0000000e+00 -1.2419741e-02 
4.2932026e-02 1.0000000e-02 2.9182016e-02 
4.2932026e-02 0.0000000e+00 2.9182016e-02 
5.5562946e-02 1.0000000e-02 -1.2376723e-02 
4.5339682e-02 1.0000000e-02 2.9899231e-02 
5.5562946e-02 0.0000000e+00 -1.2376723e-02 
4.5339682e-02 0.0000000e+00 2.9899231e-02 
5.8154863e-02 1.0000000e-02 -1.2333705e-02 
4.7758221e-02 1.0000000e-02 3.0578844e-02 
5.8154863e-02 0.0000000e+00 -1.2333705e-02 
4.7758221e-02 0.0000000e+00 3.0578844e-02 
6.0746779e-02 1.0000000e-02 -1.2290686e-02 
5.0186760e-02 1.0000000e-02 3.1221807e-02 
6.0746779e-02 0.0000000e+00 -1.2290686e-02 
5.0186760e-02 0.0000000e+00 3.1221807e-02 
6.3338696e-02 1.0000000e-02 -1.2247668e-02 
5.2624513e-02 1.0000000e-02 3.1828903e-02 
6.3338696e-02 0.0000000e+00 -1.2247668e-02 
5.2624513e-02 0.0000000e+00 3.1828903e-02 
5.5070762e-02 1.0000000e-02 3.2400804e-02 
6.5930613e-02 1.0000000e-02 -1.2204650e-02 
5.5070762e-02 0.0000000e+00 3.2400804e-02 
6.5930613e-02 0.0000000e+00 -1.2204650e-02 
5.7524847e-02 1.0000000e-02 3.2938082e-02 
6.8522529e-02 1.0000000e-02 -1.2161631e-02 
5.7524847e-02 0.0000000e+00 3.2938082e-02 
6.8522529e-02 0.0000000e+00 -1.2161631e-02 
5.9986169e-02 1.0000000e-02 3.3441170e-02 
7.1114446e-02 1.0000000e-02 -1.2118613e-02 
5.9986169e-02 0.0000000e+00 3.3441170e-02 
7.1114446e-02 0.0000000e+00 -1.2118613e-02 
6.2454163e-02 1.0000000e-02 3.3910436e-02 
6.2454163e-02 0.0000000e+00 3.3910436e-02 
7.3706362e-02 1.0000000e-02 -1.2075595e-02 
7.3706362e-02 0.0000000e+00 -1.2075595e-02 
6.4928303e-02 1.0000000e-02 3.4346139e-02 
6.4928303e-02 0.0000000e+00 3.4346139e-02 
7.6298279e-02 1.0000000e-02 -1.2032577e-02 
7.6298279e-02 0.0000000e+00 -1.2032577e-02 
6.7408092e-02 1.0000000e-02 3.4748446e-02 
6.7408092e-02 0.0000000e+00 3.4748446e-02 
7.8890196e-02 1.0000000e-02 -1.1989558e-02 
7.8890196e-02 0.0000000e+00 -1.1989558e-02 
6.9893057e-02 1.0000000e-02 3.5117436e-02 
6.9893057e-02 0.0000000e+00 3.5117436e-02 
8.1482112e-02 1.0000000e-02 -1.1946540e-02 
8.1482112e-02 0.0000000e+00 -1.1946540e-02 
7.2382742e-02 1.0000000e-02 3.5453098e-02 
7.2382742e-02 0.0000000e+00 3.5453098e-02 
8.4074029e-02 1.0000000e-02 -1.1903522e-02 
7.4876707e-02 1.0000000e-02 3.5755332e-02 
8.4074029e-02 0.0000000e+00 -1.1903522e-02 
7.4876707e-02 0.0000000e+00 3.5755332e-02 
8.6665946e-02 1.0000000e-02 -1.1860503e-02 
7.7374516e-02 1.0000000e-02 3.6023948e-02 
8.6665946e-02 0.0000000e+00 -1.1860503e-02 
7.7374516e-02 0.0000000e+00 3.6023948e-02 
8.9257862e-02 1.0000000e-02 -1.1817485e-02 
7.9875738e-02 1.0000000e-02 3.6258665e-02 
8.9257862e-02 0.0000000e+00 -1.1817485e-02 
7.9875738e-02 0.0000000e+00 3.6258665e-02 
8.2379940e-02 1.0000000e-02 3.6459105e-02 
9.1849779e-02 1.0000000e-02 -1.1774467e-02 
8.2379940e-02 0.0000000e+00 3.6459105e-02 
9.1849779e-02 0.0000000e+00 -1.1774467e-02 
8.4886681e-02 1.0000000e-02 3.6624786e-02 
9.4441696e-02 1.0000000e-02 -1.1731448e-02 
8.4886681e-02 0.0000000e+00 3.6624786e-02 
9.4441696e-02 0.0000000e+00 -1.1731448e-02 
8.7395510e-02 1.0000000e-02 3.6755108e-02 
8.7395510e-02 0.0000000e+00 3.6755108e-02 
9.7033612e-02 1.0000000e-02 -1.1688430e-02 
9.7033612e-02 0.0000000e+00 -1.1688430e-02 
8.9905951e-02 1.0000000e-02 3.6849401e-02 
8.9905951e-02 0.0000000e+00 3.6849401e-02 
9.9625529e-02 1.0000000e-02 -1.1645412e-02 
9.9625529e-02 0.0000000e+00 -1.1645412e-02 
9.2417505e-02 1.0000000e-02 3.6906832e-02 
9.2417505e-02 0.0000000e+00 3.6906832e-02 
1.0221745e-01 1.0000000e-02 -1.1602393e-02 
1.0221745e-01 0.0000000e+00 -1.1602393e-02 
9.4929640e-02 1.0000000e-02 3.6926425e-02 
9.4929640e-02 0.0000000e+00 3.6926425e-02 
1.0480936e-01 1.0000000e-02 -1.1559375e-02 
1.0480936e-01 0.0000000e+00 -1.1559375e-02 
9.7441776e-02 1.0000000e-02 3.6907077e-02 
9.7441776e-02 0.0000000e+00 3.6907077e-02 
1.0740128e-01 1.0000000e-02 -1.1516357e-02 
1.0740128e-01 0.0000000e+00 -1.1516357e-02 
9.9953281e-02 1.0000000e-02 3.6847529e-02 
9.9953281e-02 0.0000000e+00 3.6847529e-02 
1.0999320e-01 1.0000000e-02 -1.1473339e-02 
1.0246345e-01 1.0000000e-02 3.6746314e-02 
1.0999320e-01 0.0000000e+00 -1.1473339e-02 
1.0246345e-01 0.0000000e+00 3.6746314e-02 
1.0497150e-01 1.0000000e-02 3.6601738e-02 
1.1258511e-01 1.0000000e-02 -1.1430320e-02 
1.0497150e-01 0.0000000e+00 3.6601738e-02 
1.1258511e-01 0.0000000e+00 -1.1430320e-02 
1.0747666e-01 1.0000000e-02 3.6413638e-02 
1.1517703e-01 1.0000000e-02 -1.1387302e-02 
1.0747666e-01 0.0000000e+00 3.6413638e-02 
[...]
POINT_DATA 824
FIELD FieldData 2
DISPLACEMENT 3 824  float
0.0000000e+00 0.0000000e+00 0.0000000e+00 
0.0000000e+00 0.0000000e+00 0.0000000e+00 
0.0000000e+00 0.0000000e+00 0.0000000e+00 
0.0000000e+00 0.0000000e+00 0.0000000e+00 
0.0000000e+00 0.0000000e+00 0.0000000e+00 
0.0000000e+00 0.0000000e+00 0.0000000e+00 
0.0000000e+00 0.0000000e+00 0.0000000e+00 
0.0000000e+00 0.0000000e+00 0.0000000e+00 
0.0000000e+00 0.0000000e+00 0.0000000e+00 
0.0000000e+00 0.0000000e+00 0.0000000e+00 
0.0000000e+00 0.0000000e+00 0.0000000e+00 
0.0000000e+00 0.0000000e+00 0.0000000e+00 
0.0000000e+00 0.0000000e+00 0.0000000e+00 
0.0000000e+00 0.0000000e+00 0.0000000e+00 
0.0000000e+00 0.0000000e+00 0.0000000e+00 
0.0000000e+00 0.0000000e+00 0.0000000e+00 
0.0000000e+00 0.0000000e+00 0.0000000e+00 
0.0000000e+00 0.0000000e+00 0.0000000e+00 
0.0000000e+00 0.0000000e+00 0.0000000e+00 
0.0000000e+00 0.0000000e+00 0.0000000e+00 
0.0000000e+00 0.0000000e+00 0.0000000e+00 
0.0000000e+00 0.0000000e+00 0.0000000e+00 
0.0000000e+00 0.0000000e+00 0.0000000e+00 
0.0000000e+00 0.0000000e+00 0.0000000e+00 
0.0000000e+00 0.0000000e+00 0.0000000e+00 
0.0000000e+00 0.0000000e+00 0.0000000e+00 
0.0000000e+00 0.0000000e+00 0.0000000e+00 
0.0000000e+00 0.0000000e+00 0.0000000e+00 
0.0000000e+00 0.0000000e+00 0.0000000e+00 
0.0000000e+00 0.0000000e+00 0.0000000e+00 
0.0000000e+00 0.0000000e+00 0.0000000e+00 
0.0000000e+00 0.0000000e+00 0.0000000e+00 
0.0000000e+00 0.0000000e+00 0.0000000e+00 
0.0000000e+00 0.0000000e+00 0.0000000e+00 
0.0000000e+00 0.0000000e+00 0.0000000e+00 
0.0000000e+00 0.0000000e+00 0.0000000e+00 
0.0000000e+00 0.0000000e+00 0.0000000e+00 
0.0000000e+00 0.0000000e+00 0.0000000e+00 
0.0000000e+00 0.0000000e+00 0.0000000e+00 
0.0000000e+00 0.0000000e+00 0.0000000e+00 
0.0000000e+00 0.0000000e+00 0.0000000e+00 
0.0000000e+00 0.0000000e+00 0.0000000e+00 
0.0000000e+00 0.0000000e+00 0.0000000e+00 
0.0000000e+00 0.0000000e+00 0.0000000e+00 
0.0000000e+00 0.0000000e+00 0.0000000e+00 
0.0000000e+00 0.0000000e+00 0.0000000e+00 
0.0000000e+00 0.0000000e+00 0.0000000e+00 
0.0000000e+00 0.0000000e+00 0.0000000e+00 
0.0000000e+00 0.0000000e+00 0.0000000e+00 
0.0000000e+00 0.0000000e+00 0.0000000e+00 
0.0000000e+00 0.0000000e+00 0.0000000e+00 
0.0000000e+00 0.0000000e+00 0.0000000e+00 
0.0000000e+00 0.0000000e+00 0.0000000e+00 
0.0000000e+00 0.0000000e+00 0.0000000e+00 
0.0000000e+00 0.0000000e+00 0.0000000e+00 
0.0000000e+00 0.0000000e+00 0.0000000e+00 
0.0000000e+00 0.0000000e+00 0.0000000e+00 
0.0000000e+00 0.0000000e+00 0.0000000e+00 
0.0000000e+00 0.0000000e+00 0.0000000e+00 
0.0000000e+00 0.0000000e+00 0.0000000e+00 
0.0000000e+00 0.0000000e+00 0.0000000e+00 
0.0000000e+00 0.0000000e+00 0.0000000e+00 
0.0000000e+00 0.0000000e+00 0.0000000e+00 
0.0000000e+00 0.0000000e+00 0.0000000e+00 
0.0000000e+00 0.0000000e+00 0.0000000e+00 
0.0000000e+00 0.0000000e+00 0.0000000e+00 
0.0000000e+00 0.0000000e+00 0.0000000e+00 
0.0000000e+00 0.0000000e+00 0.0000000e+00 
0.0000000e+00 0.0000000e+00 0.0000000e+00 
0.0000000e+00 0.0000000e+00 0.0000000e+00 
0.0000000e+00 0.0000000e+00 0.0000000e+00 
0.0000000e+00 0.0000000e+00 0.0000000e+00 
0.0000000e+00 0.0000000e+00 0.0000000e+00 
0.0000000e+00 0.0000000e+00 0.0000000e+00 
0.0000000e+00 0.0000000e+00 0.0000000e+00 
0.0000000e+00 0.0000000e+00 0.0000000e+00 
0.0000000e+00 0.0000000e+00 0.0000000e+00 
0.0000000e+00 0.0000000e+00 0.0000000e+00 
0.0000000e+00 0.0000000e+00 0.0000000e+00 
0.0000000e+00 0.0000000e+00 0.0000000e+00 
0.0000000e+00 0.0000000e+00 0.0000000e+00 
0.0000000e+00 0.0000000e+00 0.0000000e+00 
0.0000000e+00 0.0000000e+00 0.0000000e+00 
0.0000000e+00 0.0000000e+00 0.0000000e+00 
0.0000000e+00 0.0000000e+00 0.0000000e+00 
0.0000000e+00 0.0000000e+00 0.0000000e+00 
0.0000000e+00 0.0000000e+00 0.0000000e+00 
0.0000000e+00 0.0000000e+00 0.0000000e+00 
0.0000000e+00 0.0000000e+00 0.0000000e+00 
0.0000000e+00 0.0000000e+00 0.0000000e+00 
0.0000000e+00 0.0000000e+00 0.0000000e+00 
0.0000000e+00 0.0000000e+00 0.0000000e+00 
0.0000000e+00 0.0000000e+00 0.0000000e+00 
0.0000000e+00 0.0000000e+00 0.0000000e+00 
0.0000000e+00 0.0000000e+00 0.0000000e+00 
0.0000000e+00 0.0000000e+00 0.0000000e+00 
0.0000000e+00 0.0000000e+00 0.0000000e+00 
4.5207269e-05 0.0000000e+00 3.5775941e-04 
0.0000000e+00 0.0000000e+00 0.0000000e+00 
4.5207269e-05 0.0000000e+00 3.5775941e-04 
0.0000000e+00 0.0000000e+00 0.0000000e+00 
8.8483375e-05 0.0000000e+00 7.2382483e-04 
0.0000000e+00 0.0000000e+00 0.0000000e+00 
8.8483375e-05 0.0000000e+00 7.2382483e-04 
0.0000000e+00 0.0000000e+00 0.0000000e+00 
1.3116735e-04 0.0000000e+00 1.1109542e-03 
0.0000000e+00 0.0000000e+00 0.0000000e+00 
1.3116735e-04 0.0000000e+00 1.1109542e-03 
0.0000000e+00 0.0000000e+00 0.0000000e+00 
1.7905203e-04 0.0000000e+00 1.5891693e-03 
0.0000000e+00 0.0000000e+00 0.0000000e+00 
1.7905203e-04 0.0000000e+00 1.5891693e-03 
0.0000000e+00 0.0000000e+00 0.0000000e+00 
2.3160657e-04 0.0000000e+00 2.1825021e-03 
0.0000000e+00 0.0000000e+00 0.0000000e+00 
0.0000000e+00 0.0000000e+00 0.0000000e+00 
2.3160657e-04 0.0000000e+00 2.1825021e-03 
0.0000000e+00 0.0000000e+00 0.0000000e+00 
0.0000000e+00 0.0000000e+00 0.0000000e+00 
2.8202221e-04 0.0000000e+00 2.8309249e-03 
0.0000000e+00 0.0000000e+00 0.0000000e+00 
2.8202221e-04 0.0000000e+00 2.8309249e-03 
0.0000000e+00 0.0000000e+00 0.0000000e+00 
3.2669166e-04 0.0000000e+00 3.5007478e-03 
0.0000000e+00 0.0000000e+00 0.0000000e+00 
3.2669166e-04 0.0000000e+00 3.5007478e-03 
0.0000000e+00 0.0000000e+00 0.0000000e+00 
0.0000000e+00 0.0000000e+00 0.0000000e+00 
3.6414143e-04 0.0000000e+00 4.1965581e-03 
0.0000000e+00 0.0000000e+00 0.0000000e+00 
3.6414143e-04 0.0000000e+00 4.1965581e-03 
0.0000000e+00 0.0000000e+00 0.0000000e+00 
3.9448108e-04 0.0000000e+00 4.9170256e-03 
0.0000000e+00 0.0000000e+00 0.0000000e+00 
3.9448108e-04 0.0000000e+00 4.9170256e-03 
0.0000000e+00 0.0000000e+00 0.0000000e+00 
4.1939807e-04 0.0000000e+00 5.6557068e-03 
0.0000000e+00 0.0000000e+00 0.0000000e+00 
4.1939807e-04 0.0000000e+00 5.6557068e-03 
0.0000000e+00 0.0000000e+00 0.0000000e+00 
4.3851882e-04 0.0000000e+00 6.4133792e-03 
0.0000000e+00 0.0000000e+00 0.0000000e+00 
4.3851882e-04 0.0000000e+00 6.4133792e-03 
0.0000000e+00 0.0000000e+00 0.0000000e+00 
0.0000000e+00 0.0000000e+00 0.0000000e+00 
4.4950443e-04 0.0000000e+00 7.1969497e-03 
0.0000000e+00 0.0000000e+00 0.0000000e+00 
4.4950443e-04 0.0000000e+00 7.1969497e-03 
0.0000000e+00 0.0000000e+00 0.0000000e+00 
4.5203565e-04 0.0000000e+00 8.0066458e-03 
0.0000000e+00 0.0000000e+00 0.0000000e+00 
4.5203565e-04 0.0000000e+00 8.0066458e-03 
0.0000000e+00 0.0000000e+00 0.0000000e+00 
4.4761111e-04 0.0000000e+00 8.8372973e-03 
0.0000000e+00 0.0000000e+00 0.0000000e+00 
4.4761111e-04 0.0000000e+00 8.8372973e-03 
0.0000000e+00 0.0000000e+00 0.0000000e+00 
0.0000000e+00 0.0000000e+00 0.0000000e+00 
4.3574135e-04 0.0000000e+00 9.6898091e-03 
4.3574135e-04 0.0000000e+00 9.6898091e-03 
0.0000000e+00 0.0000000e+00 0.0000000e+00 
0.0000000e+00 0.0000000e+00 0.0000000e+00 
4.1437787e-04 0.0000000e+00 1.0569411e-02 
4.1437787e-04 0.0000000e+00 1.0569411e-02 
0.0000000e+00 0.0000000e+00 0.0000000e+00 
0.0000000e+00 0.0000000e+00 0.0000000e+00 
3.8327686e-04 0.0000000e+00 1.1476028e-02 
3.8327686e-04 0.0000000e+00 1.1476028e-02 
0.0000000e+00 0.0000000e+00 0.0000000e+00 
0.0000000e+00 0.0000000e+00 0.0000000e+00 
3.4356504e-04 0.0000000e+00 1.2405947e-02 
3.4356504e-04 0.0000000e+00 1.2405947e-02 
0.0000000e+00 0.0000000e+00 0.0000000e+00 
0.0000000e+00 0.0000000e+00 0.0000000e+00 
2.9483796e-04 0.0000000e+00 1.3359630e-02 
0.0000000e+00 0.0000000e+00 0.0000000e+00 
2.9483796e-04 0.0000000e+00 1.3359630e-02 
0.0000000e+00 0.0000000e+00 0.0000000e+00 
2.3556648e-04 0.0000000e+00 1.4340350e-02 
0.0000000e+00 0.0000000e+00 0.0000000e+00 
2.3556648e-04 0.0000000e+00 1.4340350e-02 
0.0000000e+00 0.0000000e+00 0.0000000e+00 
1.6603104e-04 0.0000000e+00 1.5346773e-02 
0.0000000e+00 0.0000000e+00 0.0000000e+00 
1.6603104e-04 0.0000000e+00 1.5346773e-02 
0.0000000e+00 0.0000000e+00 0.0000000e+00 
0.0000000e+00 0.0000000e+00 0.0000000e+00 
8.7620852e-05 0.0000000e+00 1.6374987e-02 
0.0000000e+00 0.0000000e+00 0.0000000e+00 
8.7620852e-05 0.0000000e+00 1.6374987e-02 
0.0000000e+00 0.0000000e+00 0.0000000e+00 
1.8736954e-07 0.0000000e+00 1.7424846e-02 
0.0000000e+00 0.0000000e+00 0.0000000e+00 
1.8736954e-07 0.0000000e+00 1.7424846e-02 
0.0000000e+00 0.0000000e+00 0.0000000e+00 
0.0000000e+00 0.0000000e+00 0.0000000e+00 
-9.7039831e-05 0.0000000e+00 1.8497653e-02 
-9.7039831e-05 0.0000000e+00 1.8497653e-02 
0.0000000e+00 0.0000000e+00 0.0000000e+00 
0.0000000e+00 0.0000000e+00 0.0000000e+00 
-2.0362854e-04 0.0000000e+00 1.9591928e-02 
-2.0362854e-04 0.0000000e+00 1.9591928e-02 
0.0000000e+00 0.0000000e+00 0.0000000e+00 
0.0000000e+00 0.0000000e+00 0.0000000e+00 
-3.1855616e-04 0.0000000e+00 2.0704963e-02 
-3.1855616e-04 0.0000000e+00 2.0704963e-02 
0.0000000e+00 0.0000000e+00 0.0000000e+00 
0.0000000e+00 0.0000000e+00 0.0000000e+00 
-4.4148383e-04 0.0000000e+00 2.1835651e-02 
-4.4148383e-04 0.0000000e+00 2.1835651e-02 
0.0000000e+00 0.0000000e+00 0.0000000e+00 
0.0000000e+00 0.0000000e+00 0.0000000e+00 
-5.7233972e-04 0.0000000e+00 2.2983524e-02 
-5.7233972e-04 0.0000000e+00 2.2983524e-02 
0.0000000e+00 0.0000000e+00 0.0000000e+00 
0.0000000e+00 0.0000000e+00 0.0000000e+00 
-7.1042483e-04 0.0000000e+00 2.4146849e-02 
0.0000000e+00 0.0000000e+00 0.0000000e+00 
-7.1042483e-04 0.0000000e+00 2.4146849e-02 
0.0000000e+00 0.0000000e+00 0.0000000e+00 
-1.1663046e-04 0.0000000e+00 1.3293562e-03 
-8.5479410e-04 0.0000000e+00 2.5323450e-02 
-1.1663046e-04 0.0000000e+00 1.3293562e-03 
-8.5479410e-04 0.0000000e+00 2.5323450e-02 
-2.3243466e-04 0.0000000e+00 2.7066762e-03 
-1.0048279e-03 0.0000000e+00 2.6511872e-02 
-2.3243466e-04 0.0000000e+00 2.7066762e-03 
-1.0048279e-03 0.0000000e+00 2.6511872e-02 
-3.4870365e-04 0.0000000e+00 4.0993559e-03 
-3.4870365e-04 0.0000000e+00 4.0993559e-03 
-1.1597172e-03 0.0000000e+00 2.7710309e-02 
-1.1597172e-03 0.0000000e+00 2.7710309e-02 
-4.6652209e-04 0.0000000e+00 5.4953595e-03 
-4.6652209e-04 0.0000000e+00 5.4953595e-03 
-1.3183479e-03 0.0000000e+00 2.8916428e-02 
-1.3183479e-03 0.0000000e+00 2.8916428e-02 
-5.8643037e-04 0.0000000e+00 6.8957743e-03 
-5.8643037e-04 0.0000000e+00 6.8957743e-03 
-1.4799457e-03 0.0000000e+00 3.0128645e-02 
-1.4799457e-03 0.0000000e+00 3.0128645e-02 
-7.0892117e-04 0.0000000e+00 8.3015907e-03 
-7.0892117e-04 0.0000000e+00 8.3015907e-03 
-1.6437037e-03 0.0000000e+00 3.1345273e-02 
-1.6437037e-03 0.0000000e+00 3.1345273e-02 
-8.3410833e-04 0.0000000e+00 9.7130164e-03 
-8.3410833e-04 0.0000000e+00 9.7130164e-03 
-1.8081872e-03 0.0000000e+00 3.2563374e-02 
-1.8081872e-03 0.0000000e+00 3.2563374e-02 
-9.6177479e-04 0.0000000e+00 1.1129594e-02 
-9.6177479e-04 0.0000000e+00 1.1129594e-02 
-1.9721329e-03 0.0000000e+00 3.3780368e-02 
-1.0924650e-03 0.0000000e+00 1.2552533e-02 
-1.9721329e-03 0.0000000e+00 3.3780368e-02 
-1.0924650e-03 0.0000000e+00 1.2552533e-02 
-1.2285620e-03 0.0000000e+00 1.3986886e-02 
-2.1350483e-03 0.0000000e+00 3.4995230e-02 
-1.2285620e-03 0.0000000e+00 1.3986886e-02 
-2.1350483e-03 0.0000000e+00 3.4995230e-02 
-1.3723875e-03 0.0000000e+00 1.5437323e-02 
-2.2960227e-03 0.0000000e+00 3.6206069e-02 
-1.3723875e-03 0.0000000e+00 1.5437323e-02 
-2.2960227e-03 0.0000000e+00 3.6206069e-02 
-1.5251924e-03 0.0000000e+00 1.6906053e-02 
-1.5251924e-03 0.0000000e+00 1.6906053e-02 
-2.4531262e-03 0.0000000e+00 3.7408868e-02 
-2.4531262e-03 0.0000000e+00 3.7408868e-02 
-1.6891562e-03 0.0000000e+00 1.8396112e-02 
-1.6891562e-03 0.0000000e+00 1.8396112e-02 
-2.6052001e-03 0.0000000e+00 3.8601116e-02 
-2.6052001e-03 0.0000000e+00 3.8601116e-02 
-1.8659171e-03 0.0000000e+00 1.9909225e-02 
-1.8659171e-03 0.0000000e+00 1.9909225e-02 
-2.7521394e-03 0.0000000e+00 3.9782477e-02 
-2.7521394e-03 0.0000000e+00 3.9782477e-02 
-2.0545515e-03 0.0000000e+00 2.1443104e-02 
-2.0545515e-03 0.0000000e+00 2.1443104e-02 
-2.8929509e-03 0.0000000e+00 4.0950737e-02 
-2.8929509e-03 0.0000000e+00 4.0950737e-02 
-2.2543613e-03 0.0000000e+00 2.2995939e-02 
-2.2543613e-03 0.0000000e+00 2.2995939e-02 
-3.0256712e-03 0.0000000e+00 4.2101483e-02 
-3.0256712e-03 0.0000000e+00 4.2101483e-02 
-2.4665905e-03 0.0000000e+00 2.4568351e-02 
-2.4665905e-03 0.0000000e+00 2.4568351e-02 
-3.1491499e-03 0.0000000e+00 4.3231837e-02 
-3.1491499e-03 0.0000000e+00 4.3231837e-02 
-2.6867700e-03 0.0000000e+00 2.6152576e-02 
-2.6867700e-03 0.0000000e+00 2.6152576e-02 
-3.2630672e-03 0.0000000e+00 4.4340648e-02 
-3.2630672e-03 0.0000000e+00 4.4340648e-02 
-2.9054940e-03 0.0000000e+00 2.7734645e-02 
-2.9054940e-03 0.0000000e+00 2.7734645e-02 
-3.3665743e-03 0.0000000e+00 4.5425499e-02 
-3.1140881e-03 0.0000000e+00 2.9301586e-02 
-3.3665743e-03 0.0000000e+00 4.5425499e-02 
-3.1140881e-03 0.0000000e+00 2.9301586e-02 
-3.4584473e-03 0.0000000e+00 4.6482896e-02 
-3.3001761e-03 0.0000000e+00 3.0831426e-02 
-3.4584473e-03 0.0000000e+00 4.6482896e-02 
-3.3001761e-03 0.0000000e+00 3.0831426e-02 
-3.4555702e-03 0.0000000e+00 3.2306223e-02 
-3.5379733e-03 0.0000000e+00 4.7510402e-02 
-3.4555702e-03 0.0000000e+00 3.2306223e-02 
-3.5379733e-03 0.0000000e+00 4.7510402e-02 
-3.5831717e-03 0.0000000e+00 3.3727849e-02 
-3.5831717e-03 0.0000000e+00 3.3727849e-02 
-3.6046645e-03 0.0000000e+00 4.8505909e-02 
-3.6046645e-03 0.0000000e+00 4.8505909e-02 
-3.6855718e-03 0.0000000e+00 3.5097982e-02 
-3.6855718e-03 0.0000000e+00 3.5097982e-02 
-3.6579754e-03 0.0000000e+00 4.9466836e-02 
-3.6579754e-03 0.0000000e+00 4.9466836e-02 
-3.7638245e-03 0.0000000e+00 3.6413610e-02 
-3.7638245e-03 0.0000000e+00 3.6413610e-02 
-3.6977234e-03 0.0000000e+00 5.0391290e-02 
-3.6977234e-03 0.0000000e+00 5.0391290e-02 
-3.8212122e-03 0.0000000e+00 3.7676926e-02 
-3.8212122e-03 0.0000000e+00 3.7676926e-02 
-3.7236368e-03 0.0000000e+00 5.1276926e-02 
-3.7236368e-03 0.0000000e+00 5.1276926e-02 
-3.8607483e-03 0.0000000e+00 3.8892572e-02 
-3.8607483e-03 0.0000000e+00 3.8892572e-02 
-3.7351432e-03 0.0000000e+00 5.2120170e-02 
-3.7351432e-03 0.0000000e+00 5.2120170e-02 
-3.8841896e-03 0.0000000e+00 4.0062652e-02 
-3.8841896e-03 0.0000000e+00 4.0062652e-02 
-3.7323490e-03 0.0000000e+00 5.2918992e-02 
-3.7323490e-03 0.0000000e+00 5.2918992e-02 
-3.8918223e-03 0.0000000e+00 4.1185894e-02 
-3.8918223e-03 0.0000000e+00 4.1185894e-02 
-3.7160799e-03 0.0000000e+00 5.3673450e-02 
-3.7160799e-03 0.0000000e+00 5.3673450e-02 
-3.8839699e-03 0.0000000e+00 4.2261024e-02 
-3.8839699e-03 0.0000000e+00 4.2261024e-02 
-3.6867293e-03 0.0000000e+00 5.4382329e-02 
-3.6867293e-03 0.0000000e+00 5.4382329e-02 
-3.8611287e-03 0.0000000e+00 4.3286603e-02 
-3.8611287e-03 0.0000000e+00 4.3286603e-02 
-3.6441322e-03 0.0000000e+00 5.5042055e-02 
-3.6441322e-03 0.0000000e+00 5.5042055e-02 
-3.8237452e-03 0.0000000e+00 4.4260754e-02 
-3.8237452e-03 0.0000000e+00 4.4260754e-02 
-3.5887804e-03 0.0000000e+00 5.5650697e-02 
-3.5887804e-03 0.0000000e+00 5.5650697e-02 
-3.7726117e-03 0.0000000e+00 4.5182255e-02 
-3.7726117e-03 0.0000000e+00 4.5182255e-02 
-3.5218530e-03 0.0000000e+00 5.6208963e-02 
-3.5218530e-03 0.0000000e+00 5.6208963e-02 
-3.7090371e-03 0.0000000e+00 4.6051874e-02 
-3.7090371e-03 0.0000000e+00 4.6051874e-02 
-3.4441149e-03 0.0000000e+00 5.6715603e-02 
-3.6340196e-03 0.0000000e+00 4.6869549e-02 
-3.4441149e-03 0.0000000e+00 5.6715603e-02 
-3.6340196e-03 0.0000000e+00 4.6869549e-02 
-3.5480493e-03 0.0000000e+00 4.7632611e-02 
-3.3560452e-03 0.0000000e+00 5.7167424e-02 
-3.5480493e-03 0.0000000e+00 4.7632611e-02 
-3.3560452e-03 0.0000000e+00 5.7167424e-02 
-3.4520224e-03 0.0000000e+00 4.8339924e-02 
-3.2587714e-03 0.0000000e+00 5.7564361e-02 
-3.4520224e-03 0.0000000e+00 4.8339924e-02 
-3.2587714e-03 0.0000000e+00 5.7564361e-02 
-3.3473622e-03 0.0000000e+00 4.8993456e-02 
-3.3473622e-03 0.0000000e+00 4.8993456e-02 
-3.1538008e-03 0.0000000e+00 5.7909159e-02 
-3.1538008e-03 0.0000000e+00 5.7909159e-02 
-3.2352339e-03 0.0000000e+00 4.9594082e-02 
-3.2352339e-03 0.0000000e+00 4.9594082e-02 
-3.0421728e-03 0.0000000e+00 5.8201940e-02 
-3.0421728e-03 0.0000000e+00 5.8201940e-02 
-3.1164247e-03 0.0000000e+00 5.0139763e-02 
-3.1164247e-03 0.0000000e+00 5.0139763e-02 
-2.9246804e-03 0.0000000e+00 5.8440530e-02 
-2.9246804e-03 0.0000000e+00 5.8440530e-02 
-2.9919240e-03 0.0000000e+00 5.0628494e-02 
-2.9919240e-03 0.0000000e+00 5.0628494e-02 
-2.8024713e-03 0.0000000e+00 5.8625788e-02 
-2.8024713e-03 0.0000000e+00 5.8625788e-02 
-2.8630064e-03 0.0000000e+00 5.1060663e-02 
-2.8630064e-03 0.0000000e+00 5.1060663e-02 
-2.6767984e-03 0.0000000e+00 5.8761137e-02 
-2.6767984e-03 0.0000000e+00 5.8761137e-02 
-2.7308249e-03 0.0000000e+00 5.1436424e-02 
-2.7308249e-03 0.0000000e+00 5.1436424e-02 
-2.5486877e-03 0.0000000e+00 5.8847262e-02 
-2.5486877e-03 0.0000000e+00 5.8847262e-02 
-2.5964574e-03 0.0000000e+00 5.1753605e-02 
-2.5964574e-03 0.0000000e+00 5.1753605e-02 
-2.4190694e-03 0.0000000e+00 5.8882489e-02 
-2.4190694e-03 0.0000000e+00 5.8882489e-02 
-2.4611462e-03 0.0000000e+00 5.2010542e-02 
-2.4611462e-03 0.0000000e+00 5.2010542e-02 
-2.2888903e-03 0.0000000e+00 5.8867563e-02 
-2.2888903e-03 0.0000000e+00 5.8867563e-02 
-2.3262199e-03 0.0000000e+00 5.2206932e-02 
-2.3262199e-03 0.0000000e+00 5.2206932e-02 
-2.1590256e-03 0.0000000e+00 5.8805145e-02 
-2.1590256e-03 0.0000000e+00 5.8805145e-02 
-2.1929965e-03 0.0000000e+00 5.2342472e-02 
-2.1929965e-03 0.0000000e+00 5.2342472e-02 
-2.0302693e-03 0.0000000e+00 5.8696910e-02 
-2.0302693e-03 0.0000000e+00 5.8696910e-02 
-2.0628151e-03 0.0000000e+00 5.2416904e-02 
-2.0628151e-03 0.0000000e+00 5.2416904e-02 
-1.9033748e-03 0.0000000e+00 5.8543662e-02 
-1.9033748e-03 0.0000000e+00 5.8543662e-02 
-1.9370309e-03 0.0000000e+00 5.2430446e-02 
-1.9370309e-03 0.0000000e+00 5.2430446e-02 
-1.7789956e-03 0.0000000e+00 5.8346792e-02 
-1.7789956e-03 0.0000000e+00 5.8346792e-02 
-1.8170014e-03 0.0000000e+00 5.2383226e-02 
-1.8170014e-03 0.0000000e+00 5.2383226e-02 
-1.6576495e-03 0.0000000e+00 5.8108623e-02 
-1.6576495e-03 0.0000000e+00 5.8108623e-02 
-1.7046707e-03 0.0000000e+00 5.2275395e-02 
-1.7046707e-03 0.0000000e+00 5.2275395e-02 
-1.5396097e-03 0.0000000e+00 5.7829223e-02 
-1.5396097e-03 0.0000000e+00 5.7829223e-02 
-1.5811579e-03 0.0000000e+00 5.2065745e-02 
-1.5811579e-03 0.0000000e+00 5.2065745e-02 
-1.4037591e-03 0.0000000e+00 5.7440363e-02 
-1.4037591e-03 0.0000000e+00 5.7440363e-02 
-1.4517758e-03 0.0000000e+00 5.1702511e-02 
-1.4517758e-03 0.0000000e+00 5.1702511e-02 
-1.2502772e-03 0.0000000e+00 5.6898214e-02 
-1.2502772e-03 0.0000000e+00 5.6898214e-02 
-1.3273796e-03 0.0000000e+00 5.1113300e-02 
-1.3273796e-03 0.0000000e+00 5.1113300e-02 
-1.0832852e-03 0.0000000e+00 5.6150098e-02 
-1.0832852e-03 0.0000000e+00 5.6150098e-02 
-1.2366416e-03 0.0000000e+00 5.0322088e-02 
-1.2366416e-03 0.0000000e+00 5.0322088e-02 
-9.3450333e-04 0.0000000e+00 5.5294736e-02 
-9.3450333e-04 0.0000000e+00 5.5294736e-02 
-1.1901764e-03 0.0000000e+00 4.9369901e-02 
-1.1901764e-03 0.0000000e+00 4.9369901e-02 
-8.0476165e-04 0.0000000e+00 5.4340615e-02 
-8.0476165e-04 0.0000000e+00 5.4340615e-02 
-1.1864445e-03 0.0000000e+00 4.8280196e-02 
-1.1864445e-03 0.0000000e+00 4.8280196e-02 
-6.9574508e-04 0.0000000e+00 5.3290424e-02 
-6.9574508e-04 0.0000000e+00 5.3290424e-02 
-1.2179489e-03 0.0000000e+00 4.7086733e-02 
-1.2179489e-03 0.0000000e+00 4.7086733e-02 
-6.0978403e-04 0.0000000e+00 5.2143623e-02 
-6.0978403e-04 0.0000000e+00 5.2143623e-02 
-1.2793923e-03 0.0000000e+00 4.5810771e-02 
-1.2793923e-03 0.0000000e+00 4.5810771e-02 
-5.4766077e-04 0.0000000e+00 5.0905372e-02 
-5.4766077e-04 0.0000000e+00 5.0905372e-02 
-1.3686787e-03 0.0000000e+00 4.4462114e-02 
-1.3686787e-03 0.0000000e+00 4.4462114e-02 
-5.0975292e-04 0.0000000e+00 4.9581694e-02 
-5.0975292e-04 0.0000000e+00 4.9581694e-02 
-1.4815682e-03 0.0000000e+00 4.3054530e-02 
-1.4815682e-03 0.0000000e+00 4.3054530e-02 
-4.9716534e-04 0.0000000e+00 4.8175066e-02 