# vtk DataFile Version 4.0
vtk output
ASCII
DATASET UNSTRUCTURED_GRID
POINTS 824 float
-6.4148600e-05 1.0000000e-02 -4.4525366e-03 
-1.0680180e-04 1.0000000e-02 -2.8088474e-03 
3.4513260e-04 1.0000000e-02 -6.0450544e-03 
1.3803532e-03 1.0000000e-02 -7.3230534e-03 
6.5829700e-05 1.0000000e-02 -1.1736922e-03 
2.7142144e-03 1.0000000e-02 -8.2851896e-03 
5.0392030e-04 1.0000000e-02 6.5784910e-04 
4.1780764e-03 1.0000000e-02 -9.0342357e-03 
1.1628646e-03 1.0000000e-02 2.4220088e-03 
5.7070961e-03 1.0000000e-02 -9.6390187e-03 
2.0046218e-03 1.0000000e-02 4.1066196e-03 
7.2731595e-03 1.0000000e-02 -1.0140047e-02 
-6.4148600e-05 0.0000000e+00 -4.4525366e-03 
-1.0680180e-04 0.0000000e+00 -2.8088474e-03 
3.4513260e-04 0.0000000e+00 -6.0450544e-03 
1.3803532e-03 0.0000000e+00 -7.3230534e-03 
6.5829700e-05 0.0000000e+00 -1.1736922e-03 
2.9952540e-03 1.0000000e-02 5.7082181e-03 
8.8622628e-03 1.0000000e-02 -1.0562311e-02 
2.7142144e-03 0.0000000e+00 -8.2851896e-03 
5.0392030e-04 0.0000000e+00 6.5784910e-04 
4.1780764e-03 0.0000000e+00 -9.0342357e-03 
1.1628646e-03 0.0000000e+00 2.4220088e-03 
1.0466628e-02 1.0000000e-02 -1.0922252e-02 
4.1067238e-03 1.0000000e-02 7.2284501e-03 
5.7070961e-03 0.0000000e+00 -9.6390187e-03 
2.0046218e-03 0.0000000e+00 4.1066196e-03 
7.2731595e-03 0.0000000e+00 -1.0140047e-02 
1.2081579e-02 1.0000000e-02 -1.1231240e-02 
5.3166988e-03 1.0000000e-02 8.6715129e-03 
2.9952540e-03 0.0000000e+00 5.7082181e-03 
8.8622628e-03 0.0000000e+00 -1.0562311e-02 
1.3704120e-02 1.0000000e-02 -1.1497501e-02 
1.0466628e-02 0.0000000e+00 -1.0922252e-02 
4.1067238e-03 0.0000000e+00 7.2284501e-03 
6.6076374e-03 1.0000000e-02 1.0042624e-02 
1.5332244e-02 1.0000000e-02 -1.1727173e-02 
1.2081579e-02 0.0000000e+00 -1.1231240e-02 
5.3166988e-03 0.0000000e+00 8.6715129e-03 
7.9658343e-03 1.0000000e-02 1.1347144e-02 
1.3704120e-02 0.0000000e+00 -1.1497501e-02 
1.6964543e-02 1.0000000e-02 -1.1925002e-02 
6.6076374e-03 0.0000000e+00 1.0042624e-02 
9.3804686e-03 1.0000000e-02 1.2590236e-02 
1.5332244e-02 0.0000000e+00 -1.1727173e-02 
1.8600004e-02 1.0000000e-02 -1.2094716e-02 
7.9658343e-03 0.0000000e+00 1.1347144e-02 
1.6964543e-02 0.0000000e+00 -1.1925002e-02 
1.0843002e-02 1.0000000e-02 1.3776601e-02 
2.0237876e-02 1.0000000e-02 -1.2239318e-02 
9.3804686e-03 0.0000000e+00 1.2590236e-02 
1.8600004e-02 0.0000000e+00 -1.2094716e-02 
1.2346566e-02 1.0000000e-02 1.4910517e-02 
2.1877591e-02 1.0000000e-02 -1.2361246e-02 
1.0843002e-02 0.0000000e+00 1.3776601e-02 
2.0237876e-02 0.0000000e+00 -1.2239318e-02 
1.3885623e-02 1.0000000e-02 1.5995768e-02 
2.3518711e-02 1.0000000e-02 -1.2462540e-02 
1.2346566e-02 0.0000000e+00 1.4910517e-02 
2.1877591e-02 0.0000000e+00 -1.2361246e-02 
2.5160890e-02 1.0000000e-02 -1.2544903e-02 
1.5455654e-02 1.0000000e-02 1.7035707e-02 
1.3885623e-02 0.0000000e+00 1.5995768e-02 
2.3518711e-02 0.0000000e+00 -1.2462540e-02 
2.6803852e-02 1.0000000e-02 -1.2609772e-02 
1.7052912e-02 1.0000000e-02 1.8033321e-02 
2.5160890e-02 0.0000000e+00 -1.2544903e-02 
1.5455654e-02 0.0000000e+00 1.7035707e-02 
2.8447376e-02 1.0000000e-02 -1.2658389e-02 
2.6803852e-02 0.0000000e+00 -1.2609772e-02 
1.7052912e-02 0.0000000e+00 1.8033321e-02 
1.8674284e-02 1.0000000e-02 1.8991246e-02 
3.0091279e-02 1.0000000e-02 -1.2691814e-02 
2.8447376e-02 0.0000000e+00 -1.2658389e-02 
1.8674284e-02 0.0000000e+00 1.8991246e-02 
2.0317149e-02 1.0000000e-02 1.9911822e-02 
3.0091279e-02 0.0000000e+00 -1.2691814e-02 
3.1735410e-02 1.0000000e-02 -1.2710971e-02 
2.0317149e-02 0.0000000e+00 1.9911822e-02 
2.1979295e-02 1.0000000e-02 2.0797113e-02 
3.1735410e-02 0.0000000e+00 -1.2710971e-02 
3.3379643e-02 1.0000000e-02 -1.2716676e-02 
2.1979295e-02 0.0000000e+00 2.0797113e-02 
2.3658832e-02 1.0000000e-02 2.1648949e-02 
3.3379643e-02 0.0000000e+00 -1.2716676e-02 
3.5023871e-02 1.0000000e-02 -1.2709629e-02 
2.3658832e-02 0.0000000e+00 2.1648949e-02 
2.5354100e-02 1.0000000e-02 2.2469029e-02 
3.5023871e-02 0.0000000e+00 -1.2709629e-02 
3.6668001e-02 1.0000000e-02 -1.2690457e-02 
2.5354100e-02 0.0000000e+00 2.2469029e-02 
2.7063712e-02 1.0000000e-02 2.3258772e-02 
3.6668001e-02 0.0000000e+00 -1.2690457e-02 
3.8312016e-02 1.0000000e-02 -1.2663038e-02 
2.7063712e-02 0.0000000e+00 2.3258772e-02 
3.8312016e-02 0.0000000e+00 -1.2663038e-02 
2.8786417e-02 1.0000000e-02 2.4019532e-02 
3.9956032e-02 1.0000000e-02 -1.2635752e-02 
2.8786417e-02 0.0000000e+00 2.4019532e-02 
3.9956032e-02 0.0000000e+00 -1.2635752e-02 
3.0521135e-02 1.0000000e-02 2.4752486e-02 
4.1600048e-02 1.0000000e-02 -1.2608467e-02 
3.0521135e-02 0.0000000e+00 2.4752486e-02 
4.1600048e-02 0.0000000e+00 -1.2608467e-02 
3.2266919e-02 1.0000000e-02 2.5458676e-02 
4.3299814e-02 1.0000000e-02 -1.2580255e-02 
3.2266919e-02 0.0000000e+00 2.5458676e-02 
4.3299814e-02 0.0000000e+00 -1.2580255e-02 
3.4022902e-02 1.0000000e-02 2.6139111e-02 
4.5339533e-02 1.0000000e-02 -1.2546402e-02 
3.4022902e-02 0.0000000e+00 2.6139111e-02 
4.5339533e-02 0.0000000e+00 -1.2546402e-02 
3.5788340e-02 1.0000000e-02 2.6794623e-02 
4.7787196e-02 1.0000000e-02 -1.2505778e-02 
3.5788340e-02 0.0000000e+00 2.6794623e-02 
3.7562554e-02 1.0000000e-02 2.7425996e-02 
4.7787196e-02 0.0000000e+00 -1.2505778e-02 
3.7562554e-02 0.0000000e+00 2.7425996e-02 
3.9344928e-02 1.0000000e-02 2.8033950e-02 
5.0379113e-02 1.0000000e-02 -1.2462760e-02 
3.9344928e-02 0.0000000e+00 2.8033950e-02 
5.0379113e-02 0.0000000e+00 -1.2462760e-02 
4.1134916e-02 1.0000000e-02 2.8619109e-02 
5.2971029e-02 1.0000000e-02 -1.2419741e-02 
4.1134916e-02 0.0000000e+00 2.8619109e-02 
5.2971029e-02 0.0000000e+00 -1.2419741e-02 
4.2932026e-02 1.0000000e-02 2.9182016e-02 
4.2932026e-02 0.0000000e+00 2.9182016e-02 
5.5562946e-02 1.0000000e-02 -1.2376723e-02 
4.5339682e-02 1.0000000e-02 2.9899231e-02 
5.5562946e-02 0.0000000e+00 -1.2376723e-02 
4.5339682e-02 0.0000000e+00 2.9899231e-02 
5.8154863e-02 1.0000000e-02 -1.2333705e-02 
4.7758221e-02 1.0000000e-02 3.0578844e-02 
5.8154863e-02 0.0000000e+00 -1.2333705e-02 
4.7758221e-02 0.0000000e+00 3.0578844e-02 
6.0746779e-02 1.0000000e-02 -1.2290686e-02 
5.0186760e-02 1.0000000e-02 3.1221807e-02 
6.0746779e-02 0.0000000e+00 -1.2290686e-02 
5.0186760e-02 0.0000000e+00 3.1221807e-02 
6.3338696e-02 1.0000000e-02 -1.2247668e-02 
5.2624513e-02 1.0000000e-02 3.1828903e-02 
6.3338696e-02 0.0000000e+00 -1.2247668e-02 
5.2624513e-02 0.0000000e+00 3.1828903e-02 
5.5070762e-02 1.0000000e-02 3.2400804e-02 
6.5930613e-02 1.0000000e-02 -1.2204650e-02 
5.5070762e-02 0.0000000e+00 3.2400804e-02 
6.5930613e-02 0.0000000e+00 -1.2204650e-02 
5.7524847e-02 1.0000000e-02 3.2938082e-02 
6.8522529e-02 1.0000000e-02 -1.2161631e-02 
5.7524847e-02 0.0000000e+00 3.2938082e-02 
6.8522529e-02 0.0000000e+00 -1.2161631e-02 
5.9986169e-02 1.0000000e-02 3.3441170e-02 
7.1114446e-02 1.0000000e-02 -1.2118613e-02 
5.9986169e-02 0.0000000e+00 3.3441170e-02 
7.1114446e-02 0.0000000e+00 -1.2118613e-02 
6.2454163e-02 1.0000000e-02 3.3910436e-02 
6.2454163e-02 0.0000000e+00 3.3910436e-02 
7.3706362e-02 1.0000000e-02 -1.2075595e-02 
7.3706362e-02 0.0000000e+00 -1.2075595e-02 
6.4928303e-02 1.0000000e-02 3.4346139e-02 
6.4928303e-02 0.0000000e+00 3.4346139e-02 
7.6298279e-02 1.0000000e-02 -1.2032577e-02 
7.6298279e-02 0.0000000e+00 -1.2032577e-02 
6.7408092e-02 1.0000000e-02 3.4748446e-02 
6.7408092e-02 0.0000000e+00 3.4748446e-02 
7.8890196e-02 1.0000000e-02 -1.1989558e-02 
7.8890196e-02 0.0000000e+00 -1.1989558e-02 
6.9893057e-02 1.0000000e-02 3.5117436e-02 
6.9893057e-02 0.0000000e+00 3.5117436e-02 
8.1482112e-02 1.0000000e-02 -1.1946540e-02 
8.1482112e-02 0.0000000e+00 -1.1946540e-02 
7.2382742e-02 1.0000000e-02 3.5453098e-02 
7.2382742e-02 0.0000000e+00 3.5453098e-02 
8.4074029e-02 1.0000000e-02 -1.1903522e-02 
7.4876707e-02 1.0000000e-02 3.5755332e-02 
8.4074029e-02 0.0000000e+00 -1.1903522e-02 
7.4876707e-02 0.0000000e+00 3.5755332e-02 
8.6665946e-02 1.0000000e-02 -1.1860503e-02 
7.7374516e-02 1.0000000e-02 3.6023948e-02 
8.6665946e-02 0.0000000e+00 -1.1860503e-02 
7.7374516e-02 0.0000000e+00 3.6023948e-02 
8.9257862e-02 1.0000000e-02 -1.1817485e-02 
7.9875738e-02 1.0000000e-02 3.6258665e-02 
8.9257862e-02 0.0000000e+00 -1.1817485e-02 
7.9875738e-02 0.0000000e+00 3.6258665e-02 
8.2379940e-02 1.0000000e-02 3.6459105e-02 
9.1849779e-02 1.0000000e-02 -1.1774467e-02 
8.2379940e-02 0.0000000e+00 3.6459105e-02 
9.1849779e-02 0.0000000e+00 -1.1774467e-02 
8.4886681e-02 1.0000000e-02 3.6624786e-02 
9.4441696e-02 1.0000000e-02 -1.1731448e-02 
8.4886681e-02 0.0000000e+00 3.6624786e-02 
9.4441696e-02 0.0000000e+00 -1.1731448e-02 
8.7395510e-02 1.0000000e-02 3.6755108e-02 
8.7395510e-02 0.0000000e+00 3.6755108e-02 
9.7033612e-02 1.0000000e-02 -1.1688430e-02 
9.7033612e-02 0.0000000e+00 -1.1688430e-02 
8.9905951e-02 1.0000000e-02 3.6849401e-02 
8.9905951e-02 0.0000000e+00 3.6849401e-02 
9.9625529e-02 1.0000000e-02 -1.1645412e-02 
9.9625529e-02 0.0000000e+00 -1.1645412e-02 
9.2417505e-02 1.0000000e-02 3.6906832e-02 
9.2417505e-02 0.0000000e+00 3.6906832e-02 
1.0221745e-01 1.0000000e-02 -1.1602393e-02 
1.0221745e-01 0.0000000e+00 -1.1602393e-02 
9.4929640e-02 1.0000000e-02 3.6926425e-02 
9.4929640e-02 0.0000000e+00 3.6926425e-02 
1.0480936e-01 1.0000000e-02 -1.1559375e-02 
1.0480936e-01 0.0000000e+00 -1.1559375e-02 
9.7441776e-02 1.0000000e-02 3.6907077e-02 
9.7441776e-02 0.0000000e+00 3.6907077e-02 
1.0740128e-01 1.0000000e-02 -1.1516357e-02 
1.0740128e-01 0.0000000e+00 -1.1516357e-02 
9.9953281e-02 1.0000000e-02 3.6847529e-02 
9.9953281e-02 0.0000000e+00 3.6847529e-02 
1.0999320e-01 1.0000000e-02 -1.1473339e-02 
1.0246345e-01 1.0000000e-02 3.6746314e-02 
1.0999320e-01 0.0000000e+00 -1.1473339e-02 
1.0246345e-01 0.0000000e+00 3.6746314e-02 
1.0497150e-01 1.0000000e-02 3.6601738e-02 
1.1258511e-01 1.0000000e-02 -1.1430320e-02 
1.0497150e-01 0.0000000e+00 3.6601738e-02 
1.1258511e-01 0.0000000e+00 -1.1430320e-02 
1.0747666e-01 1.0000000e-02 3.6413638e-02 
1.1517703e-01 1.0000000e-02 -1.1387302e-02 
1.0747666e-01 0.0000000e+00 3.6413638e-02 
[...]
POINT_DATA 824
FIELD FieldData 2
DISPLACEMENT 3 824  float
0.0000000e+00 0.0000000e+00 0.0000000e+00 
0.0000000e+00 0.0000000e+00 0.0000000e+00 
0.0000000e+00 0.0000000e+00 0.0000000e+00 
0.0000000e+00 0.0000000e+00 0.0000000e+00 
0.0000000e+00 0.0000000e+00 0.0000000e+00 
0.0000000e+00 0.0000000e+00 0.0000000e+00 
0.0000000e+00 0.0000000e+00 0.0000000e+00 
0.0000000e+00 0.0000000e+00 0.0000000e+00 
0.0000000e+00 0.0000000e+00 0.0000000e+00 
0.0000000e+00 0.0000000e+00 0.0000000e+00 
0.0000000e+00 0.0000000e+00 0.0000000e+00 
0.0000000e+00 0.0000000e+00 0.0000000e+00 
0.0000000e+00 0.0000000e+00 0.0000000e+00 
0.0000000e+00 0.0000000e+00 0.0000000e+00 
0.0000000e+00 0.0000000e+00 0.0000000e+00 
0.0000000e+00 0.0000000e+00 0.0000000e+00 
0.0000000e+00 0.0000000e+00 0.0000000e+00 
0.0000000e+00 0.0000000e+00 0.0000000e+00 
0.0000000e+00 0.0000000e+00 0.0000000e+00 
0.0000000e+00 0.0000000e+00 0.0000000e+00 
0.0000000e+00 0.0000000e+00 0.0000000e+00 
0.0000000e+00 0.0000000e+00 0.0000000e+00 
0.0000000e+00 0.0000000e+00 0.0000000e+00 
0.0000000e+00 0.0000000e+00 0.0000000e+00 
0.0000000e+00 0.0000000e+00 0.0000000e+00 
0.0000000e+00 0.0000000e+00 0.0000000e+00 
0.0000000e+00 0.0000000e+00 0.0000000e+00 
0.0000000e+00 0.0000000e+00 0.0000000e+00 
0.0000000e+00 0.0000000e+00 0.0000000e+00 
0.0000000e+00 0.0000000e+00 0.0000000e+00 
0.0000000e+00 0.0000000e+00 0.0000000e+00 
0.0000000e+00 0.0000000e+00 0.0000000e+00 
0.0000000e+00 0.0000000e+00 0.0000000e+00 
0.0000000e+00 0.0000000e+00 0.0000000e+00 
0.0000000e+00 0.0000000e+00 0.0000000e+00 
0.0000000e+00 0.0000000e+00 0.0000000e+00 
0.0000000e+00 0.0000000e+00 0.0000000e+00 
0.0000000e+00 0.0000000e+00 0.0000000e+00 
0.0000000e+00 0.0000000e+00 0.0000000e+00 
0.0000000e+00 0.0000000e+00 0.0000000e+00 
0.0000000e+00 0.0000000e+00 0.0000000e+00 
0.0000000e+00 0.0000000e+00 0.0000000e+00 
0.0000000e+00 0.0000000e+00 0.0000000e+00 
0.0000000e+00 0.0000000e+00 0.0000000e+00 
0.0000000e+00 0.0000000e+00 0.0000000e+00 
0.0000000e+00 0.0000000e+00 0.0000000e+00 
0.0000000e+00 0.0000000e+00 0.0000000e+00 
0.0000000e+00 0.0000000e+00 0.0000000e+00 
0.0000000e+00 0.0000000e+00 0.0000000e+00 
0.0000000e+00 0.0000000e+00 0.0000000e+00 
0.0000000e+00 0.0000000e+00 0.0000000e+00 
0.0000000e+00 0.0000000e+00 0.0000000e+00 
0.0000000e+00 0.0000000e+00 0.0000000e+00 
0.0000000e+00 0.0000000e+00 0.0000000e+00 
0.0000000e+00 0.0000000e+00 0.0000000e+00 
0.0000000e+00 0.0000000e+00 0.0000000e+00 
0.0000000e+00 0.0000000e+00 0.0000000e+00 
0.0000000e+00 0.0000000e+00 0.0000000e+00 
0.0000000e+00 0.0000000e+00 0.0000000e+00 
0.0000000e+00 0.0000000e+00 0.0000000e+00 
0.0000000e+00 0.0000000e+00 0.0000000e+00 
0.0000000e+00 0.0000000e+00 0.0000000e+00 
0.0000000e+00 0.0000000e+00 0.0000000e+00 
0.0000000e+00 0.0000000e+00 0.0000000e+00 
0.0000000e+00 0.0000000e+00 0.0000000e+00 
0.0000000e+00 0.0000000e+00 0.0000000e+00 
0.0000000e+00 0.0000000e+00 0.0000000e+00 
0.0000000e+00 0.0000000e+00 0.0000000e+00 
0.0000000e+00 0.0000000e+00 0.0000000e+00 
0.0000000e+00 0.0000000e+00 0.0000000e+00 
0.0000000e+00 0.0000000e+00 0.0000000e+00 
0.0000000e+00 0.0000000e+00 0.0000000e+00 
0.0000000e+00 0.0000000e+00 0.0000000e+00 
0.0000000e+00 0.0000000e+00 0.0000000e+00 
0.0000000e+00 0.0000000e+00 0.0000000e+00 
0.0000000e+00 0.0000000e+00 0.0000000e+00 
0.0000000e+00 0.0000000e+00 0.0000000e+00 
0.0000000e+00 0.0000000e+00 0.0000000e+00 
0.0000000e+00 0.0000000e+00 0.0000000e+00 
0.0000000e+00 0.0000000e+00 0.0000000e+00 
0.0000000e+00 0.0000000e+00 0.0000000e+00 
0.0000000e+00 0.0000000e+00 0.0000000e+00 
0.0000000e+00 0.0000000e+00 0.0000000e+00 
0.0000000e+00 0.0000000e+00 0.0000000e+00 
0.0000000e+00 0.0000000e+00 0.0000000e+00 
0.0000000e+00 0.0000000e+00 0.0000000e+00 
0.0000000e+00 0.0000000e+00 0.0000000e+00 
0.0000000e+00 0.0000000e+00 0.0000000e+00 
0.0000000e+00 0.0000000e+00 0.0000000e+00 
0.0000000e+00 0.0000000e+00 0.0000000e+00 
0.0000000e+00 0.0000000e+00 0.0000000e+00 
0.0000000e+00 0.0000000e+00 0.0000000e+00 
0.0000000e+00 0.0000000e+00 0.0000000e+00 
0.0000000e+00 0.0000000e+00 0.0000000e+00 
0.0000000e+00 0.0000000e+00 0.0000000e+00 
0.0000000e+00 0.0000000e+00 0.0000000e+00 
0.0000000e+00 0.0000000e+00 0.0000000e+00 
-6.9713292e-06 0.0000000e+00 1.4490437e-04 
0.0000000e+00 0.0000000e+00 0.0000000e+00 
-6.9713292e-06 0.0000000e+00 1.4490437e-04 
0.0000000e+00 0.0000000e+00 0.0000000e+00 
-1.3824742e-05 0.0000000e+00 2.8866624e-04 
0.0000000e+00 0.0000000e+00 0.0000000e+00 
-1.3824742e-05 0.0000000e+00 2.8866624e-04 
0.0000000e+00 0.0000000e+00 0.0000000e+00 
-2.0784658e-05 0.0000000e+00 4.3607636e-04 
0.0000000e+00 0.0000000e+00 0.0000000e+00 
-2.0784658e-05 0.0000000e+00 4.3607636e-04 
0.0000000e+00 0.0000000e+00 0.0000000e+00 
-2.8963843e-05 0.0000000e+00 6.1128106e-04 
0.0000000e+00 0.0000000e+00 0.0000000e+00 
-2.8963843e-05 0.0000000e+00 6.1128106e-04 
0.0000000e+00 0.0000000e+00 0.0000000e+00 
-3.8528070e-05 0.0000000e+00 8.1906187e-04 
0.0000000e+00 0.0000000e+00 0.0000000e+00 
0.0000000e+00 0.0000000e+00 0.0000000e+00 
-3.8528070e-05 0.0000000e+00 8.1906187e-04 
0.0000000e+00 0.0000000e+00 0.0000000e+00 
0.0000000e+00 0.0000000e+00 0.0000000e+00 
-4.8356548e-05 0.0000000e+00 1.0361260e-03 
0.0000000e+00 0.0000000e+00 0.0000000e+00 
-4.8356548e-05 0.0000000e+00 1.0361260e-03 
0.0000000e+00 0.0000000e+00 0.0000000e+00 
-5.7872367e-05 0.0000000e+00 1.2500689e-03 
0.0000000e+00 0.0000000e+00 0.0000000e+00 
-5.7872367e-05 0.0000000e+00 1.2500689e-03 
0.0000000e+00 0.0000000e+00 0.0000000e+00 
0.0000000e+00 0.0000000e+00 0.0000000e+00 
-6.7067805e-05 0.0000000e+00 1.4607840e-03 
0.0000000e+00 0.0000000e+00 0.0000000e+00 
-6.7067805e-05 0.0000000e+00 1.4607840e-03 
0.0000000e+00 0.0000000e+00 0.0000000e+00 
-7.5941092e-05 0.0000000e+00 1.6682012e-03 
0.0000000e+00 0.0000000e+00 0.0000000e+00 
-7.5941092e-05 0.0000000e+00 1.6682012e-03 
0.0000000e+00 0.0000000e+00 0.0000000e+00 
-8.4500241e-05 0.0000000e+00 1.8723487e-03 
0.0000000e+00 0.0000000e+00 0.0000000e+00 
-8.4500241e-05 0.0000000e+00 1.8723487e-03 
0.0000000e+00 0.0000000e+00 0.0000000e+00 
-9.2749473e-05 0.0000000e+00 2.0732365e-03 
0.0000000e+00 0.0000000e+00 0.0000000e+00 
-9.2749473e-05 0.0000000e+00 2.0732365e-03 
0.0000000e+00 0.0000000e+00 0.0000000e+00 
0.0000000e+00 0.0000000e+00 0.0000000e+00 
-1.0068335e-04 0.0000000e+00 2.2707687e-03 
0.0000000e+00 0.0000000e+00 0.0000000e+00 
-1.0068335e-04 0.0000000e+00 2.2707687e-03 
0.0000000e+00 0.0000000e+00 0.0000000e+00 
-1.0830355e-04 0.0000000e+00 2.4649051e-03 
0.0000000e+00 0.0000000e+00 0.0000000e+00 
-1.0830355e-04 0.0000000e+00 2.4649051e-03 
0.0000000e+00 0.0000000e+00 0.0000000e+00 
-1.1562264e-04 0.0000000e+00 2.6557269e-03 
0.0000000e+00 0.0000000e+00 0.0000000e+00 
-1.1562264e-04 0.0000000e+00 2.6557269e-03 
0.0000000e+00 0.0000000e+00 0.0000000e+00 
0.0000000e+00 0.0000000e+00 0.0000000e+00 
-1.2264585e-04 0.0000000e+00 2.8432530e-03 
-1.2264585e-04 0.0000000e+00 2.8432530e-03 
0.0000000e+00 0.0000000e+00 0.0000000e+00 
0.0000000e+00 0.0000000e+00 0.0000000e+00 
-1.2936785e-04 0.0000000e+00 3.0273841e-03 
-1.2936785e-04 0.0000000e+00 3.0273841e-03 
0.0000000e+00 0.0000000e+00 0.0000000e+00 
0.0000000e+00 0.0000000e+00 0.0000000e+00 
-1.3579079e-04 0.0000000e+00 3.2080826e-03 
-1.3579079e-04 0.0000000e+00 3.2080826e-03 
0.0000000e+00 0.0000000e+00 0.0000000e+00 
0.0000000e+00 0.0000000e+00 0.0000000e+00 
-1.4192750e-04 0.0000000e+00 3.3854368e-03 
-1.4192750e-04 0.0000000e+00 3.3854368e-03 
0.0000000e+00 0.0000000e+00 0.0000000e+00 
0.0000000e+00 0.0000000e+00 0.0000000e+00 
-1.4778384e-04 0.0000000e+00 3.5594752e-03 
0.0000000e+00 0.0000000e+00 0.0000000e+00 
-1.4778384e-04 0.0000000e+00 3.5594752e-03 
0.0000000e+00 0.0000000e+00 0.0000000e+00 
-1.5335614e-04 0.0000000e+00 3.7301126e-03 
0.0000000e+00 0.0000000e+00 0.0000000e+00 
-1.5335614e-04 0.0000000e+00 3.7301126e-03 
0.0000000e+00 0.0000000e+00 0.0000000e+00 
-1.5864839e-04 0.0000000e+00 3.8973319e-03 
0.0000000e+00 0.0000000e+00 0.0000000e+00 
-1.5864839e-04 0.0000000e+00 3.8973319e-03 
0.0000000e+00 0.0000000e+00 0.0000000e+00 
0.0000000e+00 0.0000000e+00 0.0000000e+00 
-1.6367398e-04 0.0000000e+00 4.0612302e-03 
0.0000000e+00 0.0000000e+00 0.0000000e+00 
-1.6367398e-04 0.0000000e+00 4.0612302e-03 
0.0000000e+00 0.0000000e+00 0.0000000e+00 
-1.6844023e-04 0.0000000e+00 4.2218586e-03 
0.0000000e+00 0.0000000e+00 0.0000000e+00 
-1.6844023e-04 0.0000000e+00 4.2218586e-03 
0.0000000e+00 0.0000000e+00 0.0000000e+00 
0.0000000e+00 0.0000000e+00 0.0000000e+00 
-1.7294639e-04 0.0000000e+00 4.3791687e-03 
-1.7294639e-04 0.0000000e+00 4.3791687e-03 
0.0000000e+00 0.0000000e+00 0.0000000e+00 
0.0000000e+00 0.0000000e+00 0.0000000e+00 
-1.7719616e-04 0.0000000e+00 4.5331409e-03 
-1.7719616e-04 0.0000000e+00 4.5331409e-03 
0.0000000e+00 0.0000000e+00 0.0000000e+00 
0.0000000e+00 0.0000000e+00 0.0000000e+00 
-1.8120104e-04 0.0000000e+00 4.6838585e-03 
-1.8120104e-04 0.0000000e+00 4.6838585e-03 
0.0000000e+00 0.0000000e+00 0.0000000e+00 
0.0000000e+00 0.0000000e+00 0.0000000e+00 
-1.8496997e-04 0.0000000e+00 4.8314021e-03 
-1.8496997e-04 0.0000000e+00 4.8314021e-03 
0.0000000e+00 0.0000000e+00 0.0000000e+00 
0.0000000e+00 0.0000000e+00 0.0000000e+00 
-1.8850451e-04 0.0000000e+00 4.9757531e-03 
-1.8850451e-04 0.0000000e+00 4.9757531e-03 
0.0000000e+00 0.0000000e+00 0.0000000e+00 
0.0000000e+00 0.0000000e+00 0.0000000e+00 
-1.9180836e-04 0.0000000e+00 5.1168938e-03 
0.0000000e+00 0.0000000e+00 0.0000000e+00 
-1.9180836e-04 0.0000000e+00 5.1168938e-03 
0.0000000e+00 0.0000000e+00 0.0000000e+00 
3.2277802e-06 0.0000000e+00 3.3833871e-04 
-1.9489237e-04 0.0000000e+00 5.2549065e-03 
3.2277802e-06 0.0000000e+00 3.3833871e-04 
-1.9489237e-04 0.0000000e+00 5.2549065e-03 
9.8797535e-06 0.0000000e+00 7.1297342e-04 
-1.9776577e-04 0.0000000e+00 5.3898859e-03 
9.8797535e-06 0.0000000e+00 7.1297342e-04 
-1.9776577e-04 0.0000000e+00 5.3898859e-03 
1.8002568e-05 0.0000000e+00 1.0926385e-03 
1.8002568e-05 0.0000000e+00 1.0926385e-03 
-2.0043202e-04 0.0000000e+00 5.5218411e-03 
-2.0043202e-04 0.0000000e+00 5.5218411e-03 
2.6611516e-05 0.0000000e+00 1.4651798e-03 
2.6611516e-05 0.0000000e+00 1.4651798e-03 
-2.0289561e-04 0.0000000e+00 5.6507749e-03 
-2.0289561e-04 0.0000000e+00 5.6507749e-03 
3.5681150e-05 0.0000000e+00 1.8307591e-03 
3.5681150e-05 0.0000000e+00 1.8307591e-03 
-2.0516546e-04 0.0000000e+00 5.7767606e-03 
-2.0516546e-04 0.0000000e+00 5.7767606e-03 
4.5197675e-05 0.0000000e+00 2.1893693e-03 
4.5197675e-05 0.0000000e+00 2.1893693e-03 
-2.0724930e-04 0.0000000e+00 5.8998755e-03 
-2.0724930e-04 0.0000000e+00 5.8998755e-03 
5.5143934e-05 0.0000000e+00 2.5409817e-03 
5.5143934e-05 0.0000000e+00 2.5409817e-03 
-2.0915170e-04 0.0000000e+00 6.0201501e-03 
-2.0915170e-04 0.0000000e+00 6.0201501e-03 
6.5500589e-05 0.0000000e+00 2.8856041e-03 
6.5500589e-05 0.0000000e+00 2.8856041e-03 
-2.1087700e-04 0.0000000e+00 6.1375939e-03 
7.6250324e-05 0.0000000e+00 3.2231718e-03 
-2.1087700e-04 0.0000000e+00 6.1375939e-03 
7.6250324e-05 0.0000000e+00 3.2231718e-03 
8.7375562e-05 0.0000000e+00 3.5536222e-03 
-2.1243151e-04 0.0000000e+00 6.2522458e-03 
8.7375562e-05 0.0000000e+00 3.5536222e-03 
-2.1243151e-04 0.0000000e+00 6.2522458e-03 
9.8852112e-05 0.0000000e+00 3.8770270e-03 
-2.1382255e-04 0.0000000e+00 6.3641849e-03 
9.8852112e-05 0.0000000e+00 3.8770270e-03 
-2.1382255e-04 0.0000000e+00 6.3641849e-03 
1.1065434e-04 0.0000000e+00 4.1935103e-03 
1.1065434e-04 0.0000000e+00 4.1935103e-03 
-2.1505503e-04 0.0000000e+00 6.4734539e-03 
-2.1505503e-04 0.0000000e+00 6.4734539e-03 
1.2276242e-04 0.0000000e+00 4.5030963e-03 
1.2276242e-04 0.0000000e+00 4.5030963e-03 
-2.1613118e-04 0.0000000e+00 6.5800352e-03 
-2.1613118e-04 0.0000000e+00 6.5800352e-03 
1.3516003e-04 0.0000000e+00 4.8057190e-03 
1.3516003e-04 0.0000000e+00 4.8057190e-03 
-2.1705473e-04 0.0000000e+00 6.6839346e-03 
-2.1705473e-04 0.0000000e+00 6.6839346e-03 
1.4782617e-04 0.0000000e+00 5.1014240e-03 
1.4782617e-04 0.0000000e+00 5.1014240e-03 
-2.1783153e-04 0.0000000e+00 6.7852133e-03 
-2.1783153e-04 0.0000000e+00 6.7852133e-03 
1.6073604e-04 0.0000000e+00 5.3903618e-03 
1.6073604e-04 0.0000000e+00 5.3903618e-03 
-2.1846550e-04 0.0000000e+00 6.8839001e-03 
-2.1846550e-04 0.0000000e+00 6.8839001e-03 
1.7386940e-04 0.0000000e+00 5.6725929e-03 
1.7386940e-04 0.0000000e+00 5.6725929e-03 
-2.1895850e-04 0.0000000e+00 6.9799701e-03 
-2.1895850e-04 0.0000000e+00 6.9799701e-03 
1.8720876e-04 0.0000000e+00 5.9480858e-03 
1.8720876e-04 0.0000000e+00 5.9480858e-03 
-2.1931375e-04 0.0000000e+00 7.0734235e-03 
-2.1931375e-04 0.0000000e+00 7.0734235e-03 
2.0073466e-04 0.0000000e+00 6.2168902e-03 
2.0073466e-04 0.0000000e+00 6.2168902e-03 
-2.1953510e-04 0.0000000e+00 7.1642881e-03 
2.1442601e-04 0.0000000e+00 6.4791406e-03 
-2.1953510e-04 0.0000000e+00 7.1642881e-03 
2.1442601e-04 0.0000000e+00 6.4791406e-03 
-2.1962460e-04 0.0000000e+00 7.2525559e-03 
2.2826416e-04 0.0000000e+00 6.7349006e-03 
-2.1962460e-04 0.0000000e+00 7.2525559e-03 
2.2826416e-04 0.0000000e+00 6.7349006e-03 
2.4223291e-04 0.0000000e+00 6.9841529e-03 
-2.1958428e-04 0.0000000e+00 7.3382086e-03 
2.4223291e-04 0.0000000e+00 6.9841529e-03 
-2.1958428e-04 0.0000000e+00 7.3382086e-03 
2.5631461e-04 0.0000000e+00 7.2269315e-03 
2.5631461e-04 0.0000000e+00 7.2269315e-03 
-2.1941801e-04 0.0000000e+00 7.4212630e-03 
-2.1941801e-04 0.0000000e+00 7.4212630e-03 
2.7049132e-04 0.0000000e+00 7.4633382e-03 
2.7049132e-04 0.0000000e+00 7.4633382e-03 
-2.1912936e-04 0.0000000e+00 7.5017424e-03 
-2.1912936e-04 0.0000000e+00 7.5017424e-03 
2.8474590e-04 0.0000000e+00 7.6934112e-03 
2.8474590e-04 0.0000000e+00 7.6934112e-03 
-2.1871968e-04 0.0000000e+00 7.5796234e-03 
-2.1871968e-04 0.0000000e+00 7.5796234e-03 
2.9906231e-04 0.0000000e+00 7.9171391e-03 
2.9906231e-04 0.0000000e+00 7.9171391e-03 
-2.1819114e-04 0.0000000e+00 7.6548865e-03 
-2.1819114e-04 0.0000000e+00 7.6548865e-03 
3.1342422e-04 0.0000000e+00 8.1345534e-03 
3.1342422e-04 0.0000000e+00 8.1345534e-03 
-2.1754856e-04 0.0000000e+00 7.7275736e-03 
-2.1754856e-04 0.0000000e+00 7.7275736e-03 
3.2781567e-04 0.0000000e+00 8.3457330e-03 
3.2781567e-04 0.0000000e+00 8.3457330e-03 
-2.1679692e-04 0.0000000e+00 7.7977424e-03 
-2.1679692e-04 0.0000000e+00 7.7977424e-03 
3.4222107e-04 0.0000000e+00 8.5507127e-03 
3.4222107e-04 0.0000000e+00 8.5507127e-03 
-2.1593943e-04 0.0000000e+00 7.8654107e-03 
-2.1593943e-04 0.0000000e+00 7.8654107e-03 
3.5662481e-04 0.0000000e+00 8.7494601e-03 
3.5662481e-04 0.0000000e+00 8.7494601e-03 
-2.1497742e-04 0.0000000e+00 7.9305483e-03 
-2.1497742e-04 0.0000000e+00 7.9305483e-03 
3.7101181e-04 0.0000000e+00 8.9419819e-03 
3.7101181e-04 0.0000000e+00 8.9419819e-03 
-2.1391229e-04 0.0000000e+00 7.9931228e-03 
-2.1391229e-04 0.0000000e+00 7.9931228e-03 
3.8536712e-04 0.0000000e+00 9.1283419e-03 
3.8536712e-04 0.0000000e+00 9.1283419e-03 
-2.1274755e-04 0.0000000e+00 8.0531589e-03 
-2.1274755e-04 0.0000000e+00 8.0531589e-03 
3.9967587e-04 0.0000000e+00 9.3086038e-03 
3.9967587e-04 0.0000000e+00 9.3086038e-03 
-2.1148764e-04 0.0000000e+00 8.1107082e-03 
-2.1148764e-04 0.0000000e+00 8.1107082e-03 
4.1392307e-04 0.0000000e+00 9.4828023e-03 
4.1392307e-04 0.0000000e+00 9.4828023e-03 
-2.1013525e-04 0.0000000e+00 8.1657738e-03 
4.2809464e-04 0.0000000e+00 9.6509465e-03 
-2.1013525e-04 0.0000000e+00 8.1657738e-03 
4.2809464e-04 0.0000000e+00 9.6509465e-03 
4.4217618e-04 0.0000000e+00 9.8130368e-03 
-2.0869197e-04 0.0000000e+00 8.2183269e-03 
4.4217618e-04 0.0000000e+00 9.8130368e-03 
-2.0869197e-04 0.0000000e+00 8.2183269e-03 
4.5615449e-04 0.0000000e+00 9.9691628e-03 
-2.0716047e-04 0.0000000e+00 8.2683722e-03 
4.5615449e-04 0.0000000e+00 9.9691628e-03 
-2.0716047e-04 0.0000000e+00 8.2683722e-03 
4.7001830e-04 0.0000000e+00 1.0119477e-02 
4.7001830e-04 0.0000000e+00 1.0119477e-02 
-2.0554435e-04 0.0000000e+00 8.3159450e-03 
-2.0554435e-04 0.0000000e+00 8.3159450e-03 
4.8375565e-04 0.0000000e+00 1.0264035e-02 
4.8375565e-04 0.0000000e+00 1.0264035e-02 
-2.0384595e-04 0.0000000e+00 8.3610410e-03 
-2.0384595e-04 0.0000000e+00 8.3610410e-03 
4.9735293e-04 0.0000000e+00 1.0402800e-02 
4.9735293e-04 0.0000000e+00 1.0402800e-02 
-2.0206684e-04 0.0000000e+00 8.4036352e-03 
-2.0206684e-04 0.0000000e+00 8.4036352e-03 
5.1079734e-04 0.0000000e+00 1.0535821e-02 
5.1079734e-04 0.0000000e+00 1.0535821e-02 
-2.0020972e-04 0.0000000e+00 8.4437335e-03 
-2.0020972e-04 0.0000000e+00 8.4437335e-03 
5.2407996e-04 0.0000000e+00 1.0663255e-02 
5.2407996e-04 0.0000000e+00 1.0663255e-02 
-1.9827756e-04 0.0000000e+00 8.4813516e-03 
-1.9827756e-04 0.0000000e+00 8.4813516e-03 
5.3719121e-04 0.0000000e+00 1.0785184e-02 
5.3719121e-04 0.0000000e+00 1.0785184e-02 
-1.9627252e-04 0.0000000e+00 8.5164806e-03 
-1.9627252e-04 0.0000000e+00 8.5164806e-03 
5.5011897e-04 0.0000000e+00 1.0901591e-02 
5.5011897e-04 0.0000000e+00 1.0901591e-02 
-1.9419683e-04 0.0000000e+00 8.5491116e-03 
-1.9419683e-04 0.0000000e+00 8.5491116e-03 
5.6285164e-04 0.0000000e+00 1.1012510e-02 
5.6285164e-04 0.0000000e+00 1.1012510e-02 
-1.9205332e-04 0.0000000e+00 8.5792563e-03 
-1.9205332e-04 0.0000000e+00 8.5792563e-03 
5.7538097e-04 0.0000000e+00 1.1118057e-02 
5.7538097e-04 0.0000000e+00 1.1118057e-02 
-1.8984526e-04 0.0000000e+00 8.6069463e-03 
-1.8984526e-04 0.0000000e+00 8.6069463e-03 
5.8769917e-04 0.0000000e+00 1.1218311e-02 
5.8769917e-04 0.0000000e+00 1.1218311e-02 
-1.8757474e-04 0.0000000e+00 8.6321770e-03 
-1.8757474e-04 0.0000000e+00 8.6321770e-03 
5.9979519e-04 0.0000000e+00 1.1313264e-02 
5.9979519e-04 0.0000000e+00 1.1313264e-02 
-1.8524242e-04 0.0000000e+00 8.6548854e-03 
-1.8524242e-04 0.0000000e+00 8.6548854e-03 
6.1165836e-04 0.0000000e+00 1.1402951e-02 
6.1165836e-04 0.0000000e+00 1.1402951e-02 
-1.8285030e-04 0.0000000e+00 8.6750481e-03 
-1.8285030e-04 0.0000000e+00 8.6750481e-03 
6.2328141e-04 0.0000000e+00 1.1487476e-02 
6.2328141e-04 0.0000000e+00 1.1487476e-02 
-1.8040190e-04 0.0000000e+00 8.6927072e-03 
-1.8040190e-04 0.0000000e+00 8.6927072e-03 
6.3460264e-04 0.0000000e+00 1.1566524e-02 
6.3460264e-04 0.0000000e+00 1.1566524e-02 
-1.7789190e-04 0.0000000e+00 8.7079078e-03 
-1.7789190e-04 0.0000000e+00 8.7079078e-03 
6.4784999e-04 0.0000000e+00 1.1654678e-02 
6.4784999e-04 0.0000000e+00 1.1654678e-02 
-1.7480902e-04 0.0000000e+00 8.7227241e-03 
-1.7480902e-04 0.0000000e+00 8.7227241e-03 
6.6323833e-04 0.0000000e+00 1.1750849e-02 
6.6323833e-04 0.0000000e+00 1.1750849e-02 
-1.7101276e-04 0.0000000e+00 8.7355231e-03 
-1.7101276e-04 0.0000000e+00 8.7355231e-03 
6.8094603e-04 0.0000000e+00 1.1852645e-02 
6.8094603e-04 0.0000000e+00 1.1852645e-02 
-1.6637926e-04 0.0000000e+00 8.7438431e-03 
-1.6637926e-04 0.0000000e+00 8.7438431e-03 
6.9866331e-04 0.0000000e+00 1.1943892e-02 
6.9866331e-04 0.0000000e+00 1.1943892e-02 
-1.6162093e-04 0.0000000e+00 8.7445769e-03 
-1.6162093e-04 0.0000000e+00 8.7445769e-03 
7.1534268e-04 0.0000000e+00 1.2018495e-02 
7.1534268e-04 0.0000000e+00 1.2018495e-02 
-1.5674574e-04 0.0000000e+00 8.7373076e-03 
-1.5674574e-04 0.0000000e+00 8.7373076e-03 
7.3093900e-04 0.0000000e+00 1.2076678e-02 
7.3093900e-04 0.0000000e+00 1.2076678e-02 
-1.5176697e-04 0.0000000e+00 8.7220070e-03 
-1.5176697e-04 0.0000000e+00 8.7220070e-03 
7.4544130e-04 0.0000000e+00 1.2119107e-02 
7.4544130e-04 0.0000000e+00 1.2119107e-02 
-1.4670036e-04 0.0000000e+00 8.6988692e-03 
-1.4670036e-04 0.0000000e+00 8.6988692e-03 
7.5880822e-04 0.0000000e+00 1.2145944e-02 
7.5880822e-04 0.0000000e+00 1.2145944e-02 
-1.4155915e-04 0.0000000e+00 8.6677225e-03 
-1.4155915e-04 0.0000000e+00 8.6677225e-03 
7.7096285e-04 0.0000000e+00 1.2156878e-02 
7.7096285e-04 0.0000000e+00 1.2156878e-02 
-1.3635398e-04 0.0000000e+00 8.6282656e-03 
-1.3635398e-04 0.0000000e+00 8.6282656e-03 
7.8186946e-04 0.0000000e+00 1.2152137e-02 
7.8186946e-04 0.0000000e+00 1.2152137e-02 
-1.3109851e-04 0.0000000e+00 8.5804684e-03 
-1.3109851e-04 0.0000000e+00 8.5804684e-03 
7.9153675e-04 0.0000000e+00 1.2132444e-02 