# vtk DataFile Version 4.0
vtk output
ASCII
DATASET UNSTRUCTURED_GRID
POINTS 824 float
-6.4148600e-05 1.0000000e-02 -4.4525366e-03 
-1.0680180e-04 1.0000000e-02 -2.8088474e-03 
3.4513260e-04 1.0000000e-02 -6.0450544e-03 
1.3803532e-03 1.0000000e-02 -7.3230534e-03 
6.5829700e-05 1.0000000e-02 -1.1736922e-03 
2.7142144e-03 1.0000000e-02 -8.2851896e-03 
5.0392030e-04 1.0000000e-02 6.5784910e-04 
4.1780764e-03 1.0000000e-02 -9.0342357e-03 
1.1628646e-03 1.0000000e-02 2.4220088e-03 
5.7070961e-03 1.0000000e-02 -9.6390187e-03 
2.0046218e-03 1.0000000e-02 4.1066196e-03 
7.2731595e-03 1.0000000e-02 -1.0140047e-02 
-6.4148600e-05 0.0000000e+00 -4.4525366e-03 
-1.0680180e-04 0.0000000e+00 -2.8088474e-03 
3.4513260e-04 0.0000000e+00 -6.0450544e-03 
1.3803532e-03 0.0000000e+00 -7.3230534e-03 
6.5829700e-05 0.0000000e+00 -1.1736922e-03 
2.9952540e-03 1.0000000e-02 5.7082181e-03 
8.8622628e-03 1.0000000e-02 -1.0562311e-02 
2.7142144e-03 0.0000000e+00 -8.2851896e-03 
5.0392030e-04 0.0000000e+00 6.5784910e-04 
4.1780764e-03 0.0000000e+00 -9.0342357e-03 
1.1628646e-03 0.0000000e+00 2.4220088e-03 
1.0466628e-02 1.0000000e-02 -1.0922252e-02 
4.1067238e-03 1.0000000e-02 7.2284501e-03 
5.7070961e-03 0.0000000e+00 -9.6390187e-03 
2.0046218e-03 0.0000000e+00 4.1066196e-03 
7.2731595e-03 0.0000000e+00 -1.0140047e-02 
1.2081579e-02 1.0000000e-02 -1.1231240e-02 
5.3166988e-03 1.0000000e-02 8.6715129e-03 
2.9952540e-03 0.0000000e+00 5.7082181e-03 
8.8622628e-03 0.0000000e+00 -1.0562311e-02 
1.3704120e-02 1.0000000e-02 -1.1497501e-02 
1.0466628e-02 0.0000000e+00 -1.0922252e-02 
4.1067238e-03 0.0000000e+00 7.2284501e-03 
6.6076374e-03 1.0000000e-02 1.0042624e-02 
1.5332244e-02 1.0000000e-02 -1.1727173e-02 
1.2081579e-02 0.0000000e+00 -1.1231240e-02 
5.3166988e-03 0.0000000e+00 8.6715129e-03 
7.9658343e-03 1.0000000e-02 1.1347144e-02 
1.3704120e-02 0.0000000e+00 -1.1497501e-02 
1.6964543e-02 1.0000000e-02 -1.1925002e-02 
6.6076374e-03 0.0000000e+00 1.0042624e-02 
9.3804686e-03 1.0000000e-02 1.2590236e-02 
1.5332244e-02 0.0000000e+00 -1.1727173e-02 
1.8600004e-02 1.0000000e-02 -1.2094716e-02 
7.9658343e-03 0.0000000e+00 1.1347144e-02 
1.6964543e-02 0.0000000e+00 -1.1925002e-02 
1.0843002e-02 1.0000000e-02 1.3776601e-02 
2.0237876e-02 1.0000000e-02 -1.2239318e-02 
9.3804686e-03 0.0000000e+00 1.2590236e-02 
1.8600004e-02 0.0000000e+00 -1.2094716e-02 
1.2346566e-02 1.0000000e-02 1.4910517e-02 
2.1877591e-02 1.0000000e-02 -1.2361246e-02 
1.0843002e-02 0.0000000e+00 1.3776601e-02 
2.0237876e-02 0.0000000e+00 -1.2239318e-02 
1.3885623e-02 1.0000000e-02 1.5995768e-02 
2.3518711e-02 1.0000000e-02 -1.2462540e-02 
1.2346566e-02 0.0000000e+00 1.4910517e-02 
2.1877591e-02 0.0000000e+00 -1.2361246e-02 
2.5160890e-02 1.0000000e-02 -1.2544903e-02 
1.5455654e-02 1.0000000e-02 1.7035707e-02 
1.3885623e-02 0.0000000e+00 1.5995768e-02 
2.3518711e-02 0.0000000e+00 -1.2462540e-02 
2.6803852e-02 1.0000000e-02 -1.2609772e-02 
1.7052912e-02 1.0000000e-02 1.8033321e-02 
2.5160890e-02 0.0000000e+00 -1.2544903e-02 
1.5455654e-02 0.0000000e+00 1.7035707e-02 
2.8447376e-02 1.0000000e-02 -1.2658389e-02 
2.6803852e-02 0.0000000e+00 -1.2609772e-02 
1.7052912e-02 0.0000000e+00 1.8033321e-02 
1.8674284e-02 1.0000000e-02 1.8991246e-02 
3.0091279e-02 1.0000000e-02 -1.2691814e-02 
2.8447376e-02 0.0000000e+00 -1.2658389e-02 
1.8674284e-02 0.0000000e+00 1.8991246e-02 
2.0317149e-02 1.0000000e-02 1.9911822e-02 
3.0091279e-02 0.0000000e+00 -1.2691814e-02 
3.1735410e-02 1.0000000e-02 -1.2710971e-02 
2.0317149e-02 0.0000000e+00 1.9911822e-02 
2.1979295e-02 1.0000000e-02 2.0797113e-02 
3.1735410e-02 0.0000000e+00 -1.2710971e-02 
3.3379643e-02 1.0000000e-02 -1.2716676e-02 
2.1979295e-02 0.0000000e+00 2.0797113e-02 
2.3658832e-02 1.0000000e-02 2.1648949e-02 
3.3379643e-02 0.0000000e+00 -1.2716676e-02 
3.5023871e-02 1.0000000e-02 -1.2709629e-02 
2.3658832e-02 0.0000000e+00 2.1648949e-02 
2.5354100e-02 1.0000000e-02 2.2469029e-02 
3.5023871e-02 0.0000000e+00 -1.2709629e-02 
3.6668001e-02 1.0000000e-02 -1.2690457e-02 
2.5354100e-02 0.0000000e+00 2.2469029e-02 
2.7063712e-02 1.0000000e-02 2.3258772e-02 
3.6668001e-02 0.0000000e+00 -1.2690457e-02 
3.8312016e-02 1.0000000e-02 -1.2663038e-02 
2.7063712e-02 0.0000000e+00 2.3258772e-02 
3.8312016e-02 0.0000000e+00 -1.2663038e-02 
2.8786417e-02 1.0000000e-02 2.4019532e-02 
3.9956032e-02 1.0000000e-02 -1.2635752e-02 
2.8786417e-02 0.0000000e+00 2.4019532e-02 
3.9956032e-02 0.0000000e+00 -1.2635752e-02 
3.0521135e-02 1.0000000e-02 2.4752486e-02 
4.1600048e-02 1.0000000e-02 -1.2608467e-02 
3.0521135e-02 0.0000000e+00 2.4752486e-02 
4.1600048e-02 0.0000000e+00 -1.2608467e-02 
3.2266919e-02 1.0000000e-02 2.5458676e-02 
4.3299814e-02 1.0000000e-02 -1.2580255e-02 
3.2266919e-02 0.0000000e+00 2.5458676e-02 
4.3299814e-02 0.0000000e+00 -1.2580255e-02 
3.4022902e-02 1.0000000e-02 2.6139111e-02 
4.5339533e-02 1.0000000e-02 -1.2546402e-02 
3.4022902e-02 0.0000000e+00 2.6139111e-02 
4.5339533e-02 0.0000000e+00 -1.2546402e-02 
3.5788340e-02 1.0000000e-02 2.6794623e-02 
4.7787196e-02 1.0000000e-02 -1.2505778e-02 
3.5788340e-02 0.0000000e+00 2.6794623e-02 
3.7562554e-02 1.0000000e-02 2.7425996e-02 
4.7787196e-02 0.0000000e+00 -1.2505778e-02 
3.7562554e-02 0.0000000e+00 2.7425996e-02 
3.9344928e-02 1.0000000e-02 2.8033950e-02 
5.0379113e-02 1.0000000e-02 -1.2462760e-02 
3.9344928e-02 0.0000000e+00 2.8033950e-02 
5.0379113e-02 0.0000000e+00 -1.2462760e-02 
4.1134916e-02 1.0000000e-02 2.8619109e-02 
5.2971029e-02 1.0000000e-02 -1.2419741e-02 
4.1134916e-02 0.0000000e+00 2.8619109e-02 
5.2971029e-02 0.0000000e+00 -1.2419741e-02 
4.2932026e-02 1.0000000e-02 2.9182016e-02 
4.2932026e-02 0.0000000e+00 2.9182016e-02 
5.5562946e-02 1.0000000e-02 -1.2376723e-02 
4.5339682e-02 1.0000000e-02 2.9899231e-02 
5.5562946e-02 0.0000000e+00 -1.2376723e-02 
4.5339682e-02 0.0000000e+00 2.9899231e-02 
5.8154863e-02 1.0000000e-02 -1.2333705e-02 
4.7758221e-02 1.0000000e-02 3.0578844e-02 
5.8154863e-02 0.0000000e+00 -1.2333705e-02 
4.7758221e-02 0.0000000e+00 3.0578844e-02 
6.0746779e-02 1.0000000e-02 -1.2290686e-02 
5.0186760e-02 1.0000000e-02 3.1221807e-02 
6.0746779e-02 0.0000000e+00 -1.2290686e-02 
5.0186760e-02 0.0000000e+00 3.1221807e-02 
6.3338696e-02 1.0000000e-02 -1.2247668e-02 
5.2624513e-02 1.0000000e-02 3.1828903e-02 
6.3338696e-02 0.0000000e+00 -1.2247668e-02 
5.2624513e-02 0.0000000e+00 3.1828903e-02 
5.5070762e-02 1.0000000e-02 3.2400804e-02 
6.5930613e-02 1.0000000e-02 -1.2204650e-02 
5.5070762e-02 0.0000000e+00 3.2400804e-02 
6.5930613e-02 0.0000000e+00 -1.2204650e-02 
5.7524847e-02 1.0000000e-02 3.2938082e-02 
6.8522529e-02 1.0000000e-02 -1.2161631e-02 
5.7524847e-02 0.0000000e+00 3.2938082e-02 
6.8522529e-02 0.0000000e+00 -1.2161631e-02 
5.9986169e-02 1.0000000e-02 3.3441170e-02 
7.1114446e-02 1.0000000e-02 -1.2118613e-02 
5.9986169e-02 0.0000000e+00 3.3441170e-02 
7.1114446e-02 0.0000000e+00 -1.2118613e-02 
6.2454163e-02 1.0000000e-02 3.3910436e-02 
6.2454163e-02 0.0000000e+00 3.3910436e-02 
7.3706362e-02 1.0000000e-02 -1.2075595e-02 
7.3706362e-02 0.0000000e+00 -1.2075595e-02 
6.4928303e-02 1.0000000e-02 3.4346139e-02 
6.4928303e-02 0.0000000e+00 3.4346139e-02 
7.6298279e-02 1.0000000e-02 -1.2032577e-02 
7.6298279e-02 0.0000000e+00 -1.2032577e-02 
6.7408092e-02 1.0000000e-02 3.4748446e-02 
6.7408092e-02 0.0000000e+00 3.4748446e-02 
7.8890196e-02 1.0000000e-02 -1.1989558e-02 
7.8890196e-02 0.0000000e+00 -1.1989558e-02 
6.9893057e-02 1.0000000e-02 3.5117436e-02 
6.9893057e-02 0.0000000e+00 3.5117436e-02 
8.1482112e-02 1.0000000e-02 -1.1946540e-02 
8.1482112e-02 0.0000000e+00 -1.1946540e-02 
7.2382742e-02 1.0000000e-02 3.5453098e-02 
7.2382742e-02 0.0000000e+00 3.5453098e-02 
8.4074029e-02 1.0000000e-02 -1.1903522e-02 
7.4876707e-02 1.0000000e-02 3.5755332e-02 
8.4074029e-02 0.0000000e+00 -1.1903522e-02 
7.4876707e-02 0.0000000e+00 3.5755332e-02 
8.6665946e-02 1.0000000e-02 -1.1860503e-02 
7.7374516e-02 1.0000000e-02 3.6023948e-02 
8.6665946e-02 0.0000000e+00 -1.1860503e-02 
7.7374516e-02 0.0000000e+00 3.6023948e-02 
8.9257862e-02 1.0000000e-02 -1.1817485e-02 
7.9875738e-02 1.0000000e-02 3.6258665e-02 
8.9257862e-02 0.0000000e+00 -1.1817485e-02 
7.9875738e-02 0.0000000e+00 3.6258665e-02 
8.2379940e-02 1.0000000e-02 3.6459105e-02 
9.1849779e-02 1.0000000e-02 -1.1774467e-02 
8.2379940e-02 0.0000000e+00 3.6459105e-02 
9.1849779e-02 0.0000000e+00 -1.1774467e-02 
8.4886681e-02 1.0000000e-02 3.6624786e-02 
9.4441696e-02 1.0000000e-02 -1.1731448e-02 
8.4886681e-02 0.0000000e+00 3.6624786e-02 
9.4441696e-02 0.0000000e+00 -1.1731448e-02 
8.7395510e-02 1.0000000e-02 3.6755108e-02 
8.7395510e-02 0.0000000e+00 3.6755108e-02 
9.7033612e-02 1.0000000e-02 -1.1688430e-02 
9.7033612e-02 0.0000000e+00 -1.1688430e-02 
8.9905951e-02 1.0000000e-02 3.6849401e-02 
8.9905951e-02 0.0000000e+00 3.6849401e-02 
9.9625529e-02 1.0000000e-02 -1.1645412e-02 
9.9625529e-02 0.0000000e+00 -1.1645412e-02 
9.2417505e-02 1.0000000e-02 3.6906832e-02 
9.2417505e-02 0.0000000e+00 3.6906832e-02 
1.0221745e-01 1.0000000e-02 -1.1602393e-02 
1.0221745e-01 0.0000000e+00 -1.1602393e-02 
9.4929640e-02 1.0000000e-02 3.6926425e-02 
9.4929640e-02 0.0000000e+00 3.6926425e-02 
1.0480936e-01 1.0000000e-02 -1.1559375e-02 
1.0480936e-01 0.0000000e+00 -1.1559375e-02 
9.7441776e-02 1.0000000e-02 3.6907077e-02 
9.7441776e-02 0.0000000e+00 3.6907077e-02 
1.0740128e-01 1.0000000e-02 -1.1516357e-02 
1.0740128e-01 0.0000000e+00 -1.1516357e-02 
9.9953281e-02 1.0000000e-02 3.6847529e-02 
9.9953281e-02 0.0000000e+00 3.6847529e-02 
1.0999320e-01 1.0000000e-02 -1.1473339e-02 
1.0246345e-01 1.0000000e-02 3.6746314e-02 
1.0999320e-01 0.0000000e+00 -1.1473339e-02 
1.0246345e-01 0.0000000e+00 3.6746314e-02 
1.0497150e-01 1.0000000e-02 3.6601738e-02 
1.1258511e-01 1.0000000e-02 -1.1430320e-02 
1.0497150e-01 0.0000000e+00 3.6601738e-02 
1.1258511e-01 0.0000000e+00 -1.1430320e-02 
1.0747666e-01 1.0000000e-02 3.6413638e-02 
1.1517703e-01 1.0000000e-02 -1.1387302e-02 
1.0747666e-01 0.0000000e+00 3.6413638e-02 
[...]
POINT_DATA 824
FIELD FieldData 2
DISPLACEMENT 3 824  float
0.0000000e+00 0.0000000e+00 0.0000000e+00 
0.0000000e+00 0.0000000e+00 0.0000000e+00 
0.0000000e+00 0.0000000e+00 0.0000000e+00 
0.0000000e+00 0.0000000e+00 0.0000000e+00 
0.0000000e+00 0.0000000e+00 0.0000000e+00 
0.0000000e+00 0.0000000e+00 0.0000000e+00 
0.0000000e+00 0.0000000e+00 0.0000000e+00 
0.0000000e+00 0.0000000e+00 0.0000000e+00 
0.0000000e+00 0.0000000e+00 0.0000000e+00 
0.0000000e+00 0.0000000e+00 0.0000000e+00 
0.0000000e+00 0.0000000e+00 0.0000000e+00 
0.0000000e+00 0.0000000e+00 0.0000000e+00 
0.0000000e+00 0.0000000e+00 0.0000000e+00 
0.0000000e+00 0.0000000e+00 0.0000000e+00 
0.0000000e+00 0.0000000e+00 0.0000000e+00 
0.0000000e+00 0.0000000e+00 0.0000000e+00 
0.0000000e+00 0.0000000e+00 0.0000000e+00 
0.0000000e+00 0.0000000e+00 0.0000000e+00 
0.0000000e+00 0.0000000e+00 0.0000000e+00 
0.0000000e+00 0.0000000e+00 0.0000000e+00 
0.0000000e+00 0.0000000e+00 0.0000000e+00 
0.0000000e+00 0.0000000e+00 0.0000000e+00 
0.0000000e+00 0.0000000e+00 0.0000000e+00 
0.0000000e+00 0.0000000e+00 0.0000000e+00 
0.0000000e+00 0.0000000e+00 0.0000000e+00 
0.0000000e+00 0.0000000e+00 0.0000000e+00 
0.0000000e+00 0.0000000e+00 0.0000000e+00 
0.0000000e+00 0.0000000e+00 0.0000000e+00 
0.0000000e+00 0.0000000e+00 0.0000000e+00 
0.0000000e+00 0.0000000e+00 0.0000000e+00 
0.0000000e+00 0.0000000e+00 0.0000000e+00 
0.0000000e+00 0.0000000e+00 0.0000000e+00 
0.0000000e+00 0.0000000e+00 0.0000000e+00 
0.0000000e+00 0.0000000e+00 0.0000000e+00 
0.0000000e+00 0.0000000e+00 0.0000000e+00 
0.0000000e+00 0.0000000e+00 0.0000000e+00 
0.0000000e+00 0.0000000e+00 0.0000000e+00 
0.0000000e+00 0.0000000e+00 0.0000000e+00 
0.0000000e+00 0.0000000e+00 0.0000000e+00 
0.0000000e+00 0.0000000e+00 0.0000000e+00 
0.0000000e+00 0.0000000e+00 0.0000000e+00 
0.0000000e+00 0.0000000e+00 0.0000000e+00 
0.0000000e+00 0.0000000e+00 0.0000000e+00 
0.0000000e+00 0.0000000e+00 0.0000000e+00 
0.0000000e+00 0.0000000e+00 0.0000000e+00 
0.0000000e+00 0.0000000e+00 0.0000000e+00 
0.0000000e+00 0.0000000e+00 0.0000000e+00 
0.0000000e+00 0.0000000e+00 0.0000000e+00 
0.0000000e+00 0.0000000e+00 0.0000000e+00 
0.0000000e+00 0.0000000e+00 0.0000000e+00 
0.0000000e+00 0.0000000e+00 0.0000000e+00 
0.0000000e+00 0.0000000e+00 0.0000000e+00 
0.0000000e+00 0.0000000e+00 0.0000000e+00 
0.0000000e+00 0.0000000e+00 0.0000000e+00 
0.0000000e+00 0.0000000e+00 0.0000000e+00 
0.0000000e+00 0.0000000e+00 0.0000000e+00 
0.0000000e+00 0.0000000e+00 0.0000000e+00 
0.0000000e+00 0.0000000e+00 0.0000000e+00 
0.0000000e+00 0.0000000e+00 0.0000000e+00 
0.0000000e+00 0.0000000e+00 0.0000000e+00 
0.0000000e+00 0.0000000e+00 0.0000000e+00 
0.0000000e+00 0.0000000e+00 0.0000000e+00 
0.0000000e+00 0.0000000e+00 0.0000000e+00 
0.0000000e+00 0.0000000e+00 0.0000000e+00 
0.0000000e+00 0.0000000e+00 0.0000000e+00 
0.0000000e+00 0.0000000e+00 0.0000000e+00 
0.0000000e+00 0.0000000e+00 0.0000000e+00 
0.0000000e+00 0.0000000e+00 0.0000000e+00 
0.0000000e+00 0.0000000e+00 0.0000000e+00 
0.0000000e+00 0.0000000e+00 0.0000000e+00 
0.0000000e+00 0.0000000e+00 0.0000000e+00 
0.0000000e+00 0.0000000e+00 0.0000000e+00 
0.0000000e+00 0.0000000e+00 0.0000000e+00 
0.0000000e+00 0.0000000e+00 0.0000000e+00 
0.0000000e+00 0.0000000e+00 0.0000000e+00 
0.0000000e+00 0.0000000e+00 0.0000000e+00 
0.0000000e+00 0.0000000e+00 0.0000000e+00 
0.0000000e+00 0.0000000e+00 0.0000000e+00 
0.0000000e+00 0.0000000e+00 0.0000000e+00 
0.0000000e+00 0.0000000e+00 0.0000000e+00 
0.0000000e+00 0.0000000e+00 0.0000000e+00 
0.0000000e+00 0.0000000e+00 0.0000000e+00 
0.0000000e+00 0.0000000e+00 0.0000000e+00 
0.0000000e+00 0.0000000e+00 0.0000000e+00 
0.0000000e+00 0.0000000e+00 0.0000000e+00 
0.0000000e+00 0.0000000e+00 0.0000000e+00 
0.0000000e+00 0.0000000e+00 0.0000000e+00 
0.0000000e+00 0.0000000e+00 0.0000000e+00 
0.0000000e+00 0.0000000e+00 0.0000000e+00 
0.0000000e+00 0.0000000e+00 0.0000000e+00 
0.0000000e+00 0.0000000e+00 0.0000000e+00 
0.0000000e+00 0.0000000e+00 0.0000000e+00 
0.0000000e+00 0.0000000e+00 0.0000000e+00 
0.0000000e+00 0.0000000e+00 0.0000000e+00 
0.0000000e+00 0.0000000e+00 0.0000000e+00 
0.0000000e+00 0.0000000e+00 0.0000000e+00 
0.0000000e+00 0.0000000e+00 0.0000000e+00 
-3.2811152e-05 0.0000000e+00 3.6948618e-04 
0.0000000e+00 0.0000000e+00 0.0000000e+00 
-3.2811152e-05 0.0000000e+00 3.6948618e-04 
0.0000000e+00 0.0000000e+00 0.0000000e+00 
-6.5365465e-05 0.0000000e+00 7.3790980e-04 
0.0000000e+00 0.0000000e+00 0.0000000e+00 
-6.5365465e-05 0.0000000e+00 7.3790980e-04 
0.0000000e+00 0.0000000e+00 0.0000000e+00 
-9.8727949e-05 0.0000000e+00 1.1175987e-03 
0.0000000e+00 0.0000000e+00 0.0000000e+00 
-9.8727949e-05 0.0000000e+00 1.1175987e-03 
0.0000000e+00 0.0000000e+00 0.0000000e+00 
-1.3833001e-04 0.0000000e+00 1.5714273e-03 
0.0000000e+00 0.0000000e+00 0.0000000e+00 
-1.3833001e-04 0.0000000e+00 1.5714273e-03 
0.0000000e+00 0.0000000e+00 0.0000000e+00 
-1.8518599e-04 0.0000000e+00 2.1132439e-03 
0.0000000e+00 0.0000000e+00 0.0000000e+00 
0.0000000e+00 0.0000000e+00 0.0000000e+00 
-1.8518599e-04 0.0000000e+00 2.1132439e-03 
0.0000000e+00 0.0000000e+00 0.0000000e+00 
0.0000000e+00 0.0000000e+00 0.0000000e+00 
-2.3394484e-04 0.0000000e+00 2.6834014e-03 
0.0000000e+00 0.0000000e+00 0.0000000e+00 
-2.3394484e-04 0.0000000e+00 2.6834014e-03 
0.0000000e+00 0.0000000e+00 0.0000000e+00 
-2.8173468e-04 0.0000000e+00 3.2494830e-03 
0.0000000e+00 0.0000000e+00 0.0000000e+00 
-2.8173468e-04 0.0000000e+00 3.2494830e-03 
0.0000000e+00 0.0000000e+00 0.0000000e+00 
0.0000000e+00 0.0000000e+00 0.0000000e+00 
-3.2846405e-04 0.0000000e+00 3.8110783e-03 
0.0000000e+00 0.0000000e+00 0.0000000e+00 
-3.2846405e-04 0.0000000e+00 3.8110783e-03 
0.0000000e+00 0.0000000e+00 0.0000000e+00 
-3.7404606e-04 0.0000000e+00 4.3677711e-03 
0.0000000e+00 0.0000000e+00 0.0000000e+00 
-3.7404606e-04 0.0000000e+00 4.3677711e-03 
0.0000000e+00 0.0000000e+00 0.0000000e+00 
-4.1843869e-04 0.0000000e+00 4.9193283e-03 
0.0000000e+00 0.0000000e+00 0.0000000e+00 
-4.1843869e-04 0.0000000e+00 4.9193283e-03 
0.0000000e+00 0.0000000e+00 0.0000000e+00 
-4.6163393e-04 0.0000000e+00 5.4656748e-03 
0.0000000e+00 0.0000000e+00 0.0000000e+00 
-4.6163393e-04 0.0000000e+00 5.4656748e-03 
0.0000000e+00 0.0000000e+00 0.0000000e+00 
0.0000000e+00 0.0000000e+00 0.0000000e+00 
-5.0359372e-04 0.0000000e+00 6.0065978e-03 
0.0000000e+00 0.0000000e+00 0.0000000e+00 
-5.0359372e-04 0.0000000e+00 6.0065978e-03 
0.0000000e+00 0.0000000e+00 0.0000000e+00 
-5.4427029e-04 0.0000000e+00 6.5418206e-03 
0.0000000e+00 0.0000000e+00 0.0000000e+00 
-5.4427029e-04 0.0000000e+00 6.5418206e-03 
0.0000000e+00 0.0000000e+00 0.0000000e+00 
-5.8365645e-04 0.0000000e+00 7.0712450e-03 
0.0000000e+00 0.0000000e+00 0.0000000e+00 
-5.8365645e-04 0.0000000e+00 7.0712450e-03 
0.0000000e+00 0.0000000e+00 0.0000000e+00 
0.0000000e+00 0.0000000e+00 0.0000000e+00 
-6.2176478e-04 0.0000000e+00 7.5948710e-03 
-6.2176478e-04 0.0000000e+00 7.5948710e-03 
0.0000000e+00 0.0000000e+00 0.0000000e+00 
0.0000000e+00 0.0000000e+00 0.0000000e+00 
-6.5857519e-04 0.0000000e+00 8.1125504e-03 
-6.5857519e-04 0.0000000e+00 8.1125504e-03 
0.0000000e+00 0.0000000e+00 0.0000000e+00 
0.0000000e+00 0.0000000e+00 0.0000000e+00 
-6.9404674e-04 0.0000000e+00 8.6240149e-03 
-6.9404674e-04 0.0000000e+00 8.6240149e-03 
0.0000000e+00 0.0000000e+00 0.0000000e+00 
0.0000000e+00 0.0000000e+00 0.0000000e+00 
-7.2817485e-04 0.0000000e+00 9.1291615e-03 
-7.2817485e-04 0.0000000e+00 9.1291615e-03 
0.0000000e+00 0.0000000e+00 0.0000000e+00 
0.0000000e+00 0.0000000e+00 0.0000000e+00 
-7.6098127e-04 0.0000000e+00 9.6280255e-03 
0.0000000e+00 0.0000000e+00 0.0000000e+00 
-7.6098127e-04 0.0000000e+00 9.6280255e-03 
0.0000000e+00 0.0000000e+00 0.0000000e+00 
-7.9245523e-04 0.0000000e+00 1.0120486e-02 
0.0000000e+00 0.0000000e+00 0.0000000e+00 
-7.9245523e-04 0.0000000e+00 1.0120486e-02 
0.0000000e+00 0.0000000e+00 0.0000000e+00 
-8.2256884e-04 0.0000000e+00 1.0606315e-02 
0.0000000e+00 0.0000000e+00 0.0000000e+00 
-8.2256884e-04 0.0000000e+00 1.0606315e-02 
0.0000000e+00 0.0000000e+00 0.0000000e+00 
0.0000000e+00 0.0000000e+00 0.0000000e+00 
-8.5132976e-04 0.0000000e+00 1.1085449e-02 
0.0000000e+00 0.0000000e+00 0.0000000e+00 
-8.5132976e-04 0.0000000e+00 1.1085449e-02 
0.0000000e+00 0.0000000e+00 0.0000000e+00 
-8.7876834e-04 0.0000000e+00 1.1557963e-02 
0.0000000e+00 0.0000000e+00 0.0000000e+00 
-8.7876834e-04 0.0000000e+00 1.1557963e-02 
0.0000000e+00 0.0000000e+00 0.0000000e+00 
0.0000000e+00 0.0000000e+00 0.0000000e+00 
-9.0488544e-04 0.0000000e+00 1.2023783e-02 
-9.0488544e-04 0.0000000e+00 1.2023783e-02 
0.0000000e+00 0.0000000e+00 0.0000000e+00 
0.0000000e+00 0.0000000e+00 0.0000000e+00 
-9.2965432e-04 0.0000000e+00 1.2482667e-02 
-9.2965432e-04 0.0000000e+00 1.2482667e-02 
0.0000000e+00 0.0000000e+00 0.0000000e+00 
0.0000000e+00 0.0000000e+00 0.0000000e+00 
-9.5307661e-04 0.0000000e+00 1.2934510e-02 
-9.5307661e-04 0.0000000e+00 1.2934510e-02 
0.0000000e+00 0.0000000e+00 0.0000000e+00 
0.0000000e+00 0.0000000e+00 0.0000000e+00 
-9.7518377e-04 0.0000000e+00 1.3379389e-02 
-9.7518377e-04 0.0000000e+00 1.3379389e-02 
0.0000000e+00 0.0000000e+00 0.0000000e+00 
0.0000000e+00 0.0000000e+00 0.0000000e+00 
-9.9598182e-04 0.0000000e+00 1.3817248e-02 
-9.9598182e-04 0.0000000e+00 1.3817248e-02 
0.0000000e+00 0.0000000e+00 0.0000000e+00 
0.0000000e+00 0.0000000e+00 0.0000000e+00 
-1.0154544e-03 0.0000000e+00 1.4247874e-02 
0.0000000e+00 0.0000000e+00 0.0000000e+00 
-1.0154544e-03 0.0000000e+00 1.4247874e-02 
0.0000000e+00 0.0000000e+00 0.0000000e+00 
-4.1210210e-05 0.0000000e+00 8.1292698e-04 
-1.0336123e-03 0.0000000e+00 1.4671195e-02 
-4.1210210e-05 0.0000000e+00 8.1292698e-04 
-1.0336123e-03 0.0000000e+00 1.4671195e-02 
-7.7843488e-05 0.0000000e+00 1.6629967e-03 
-1.0504911e-03 0.0000000e+00 1.5087313e-02 
-7.7843488e-05 0.0000000e+00 1.6629967e-03 
-1.0504911e-03 0.0000000e+00 1.5087313e-02 
-1.1162594e-04 0.0000000e+00 2.5181305e-03 
-1.1162594e-04 0.0000000e+00 2.5181305e-03 
-1.0661040e-03 0.0000000e+00 1.5496197e-02 
-1.0661040e-03 0.0000000e+00 1.5496197e-02 
-1.4343646e-04 0.0000000e+00 3.3656461e-03 
-1.4343646e-04 0.0000000e+00 3.3656461e-03 
-1.0804374e-03 0.0000000e+00 1.5897632e-02 
-1.0804374e-03 0.0000000e+00 1.5897632e-02 
-1.7327343e-04 0.0000000e+00 4.2054622e-03 
-1.7327343e-04 0.0000000e+00 4.2054622e-03 
-1.0934963e-03 0.0000000e+00 1.6291515e-02 
-1.0934963e-03 0.0000000e+00 1.6291515e-02 
-2.0103799e-04 0.0000000e+00 5.0371180e-03 
-2.0103799e-04 0.0000000e+00 5.0371180e-03 
-1.1053117e-03 0.0000000e+00 1.6677907e-02 
-1.1053117e-03 0.0000000e+00 1.6677907e-02 
-2.2658766e-04 0.0000000e+00 5.8599211e-03 
-2.2658766e-04 0.0000000e+00 5.8599211e-03 
-1.1158995e-03 0.0000000e+00 1.7056782e-02 
-1.1158995e-03 0.0000000e+00 1.7056782e-02 
-2.4982013e-04 0.0000000e+00 6.6733222e-03 
-2.4982013e-04 0.0000000e+00 6.6733222e-03 
-1.1252567e-03 0.0000000e+00 1.7427975e-02 
-2.7065771e-04 0.0000000e+00 7.4768284e-03 
-1.1252567e-03 0.0000000e+00 1.7427975e-02 
-2.7065771e-04 0.0000000e+00 7.4768284e-03 
-2.8904492e-04 0.0000000e+00 8.2700251e-03 
-1.1333956e-03 0.0000000e+00 1.7791399e-02 
-2.8904492e-04 0.0000000e+00 8.2700251e-03 
-1.1333956e-03 0.0000000e+00 1.7791399e-02 
-3.0496518e-04 0.0000000e+00 9.0526405e-03 
-1.1403480e-03 0.0000000e+00 1.8147121e-02 
-3.0496518e-04 0.0000000e+00 9.0526405e-03 
-1.1403480e-03 0.0000000e+00 1.8147121e-02 
-3.1841906e-04 0.0000000e+00 9.8244616e-03 
-3.1841906e-04 0.0000000e+00 9.8244616e-03 
-1.1461359e-03 0.0000000e+00 1.8495146e-02 
-1.1461359e-03 0.0000000e+00 1.8495146e-02 
-3.2941360e-04 0.0000000e+00 1.0585308e-02 
-3.2941360e-04 0.0000000e+00 1.0585308e-02 
-1.1507611e-03 0.0000000e+00 1.8835323e-02 
-1.1507611e-03 0.0000000e+00 1.8835323e-02 
-3.3794525e-04 0.0000000e+00 1.1334931e-02 
-3.3794525e-04 0.0000000e+00 1.1334931e-02 
-1.1542343e-03 0.0000000e+00 1.9167546e-02 
-1.1542343e-03 0.0000000e+00 1.9167546e-02 
-3.4400992e-04 0.0000000e+00 1.2073063e-02 
-3.4400992e-04 0.0000000e+00 1.2073063e-02 
-1.1565836e-03 0.0000000e+00 1.9491855e-02 
-1.1565836e-03 0.0000000e+00 1.9491855e-02 
-3.4762300e-04 0.0000000e+00 1.2799504e-02 
-3.4762300e-04 0.0000000e+00 1.2799504e-02 
-1.1578313e-03 0.0000000e+00 1.9808245e-02 
-1.1578313e-03 0.0000000e+00 1.9808245e-02 
-3.4880349e-04 0.0000000e+00 1.3514073e-02 
-3.4880349e-04 0.0000000e+00 1.3514073e-02 
-1.1579882e-03 0.0000000e+00 2.0116604e-02 
-1.1579882e-03 0.0000000e+00 2.0116604e-02 
-3.4756902e-04 0.0000000e+00 1.4216562e-02 
-3.4756902e-04 0.0000000e+00 1.4216562e-02 
-1.1570726e-03 0.0000000e+00 2.0416873e-02 
-1.1570726e-03 0.0000000e+00 2.0416873e-02 
-3.4394780e-04 0.0000000e+00 1.4906800e-02 
-3.4394780e-04 0.0000000e+00 1.4906800e-02 
-1.1551132e-03 0.0000000e+00 2.0709087e-02 
-3.3798030e-04 0.0000000e+00 1.5584677e-02 
-1.1551132e-03 0.0000000e+00 2.0709087e-02 
-3.3798030e-04 0.0000000e+00 1.5584677e-02 
-1.1521346e-03 0.0000000e+00 2.0993251e-02 
-3.2971267e-04 0.0000000e+00 1.6250100e-02 
-1.1521346e-03 0.0000000e+00 2.0993251e-02 
-3.2971267e-04 0.0000000e+00 1.6250100e-02 
-3.1918460e-04 0.0000000e+00 1.6902948e-02 
-1.1481516e-03 0.0000000e+00 2.1269276e-02 
-3.1918460e-04 0.0000000e+00 1.6902948e-02 
-1.1481516e-03 0.0000000e+00 2.1269276e-02 
-3.0643387e-04 0.0000000e+00 1.7543059e-02 
-3.0643387e-04 0.0000000e+00 1.7543059e-02 
-1.1431824e-03 0.0000000e+00 2.1537095e-02 
-1.1431824e-03 0.0000000e+00 2.1537095e-02 
-2.9150586e-04 0.0000000e+00 1.8170313e-02 
-2.9150586e-04 0.0000000e+00 1.8170313e-02 
-1.1372533e-03 0.0000000e+00 2.1796717e-02 
-1.1372533e-03 0.0000000e+00 2.1796717e-02 
-2.7444882e-04 0.0000000e+00 1.8784591e-02 
-2.7444882e-04 0.0000000e+00 1.8784591e-02 
-1.1303865e-03 0.0000000e+00 2.2048122e-02 
-1.1303865e-03 0.0000000e+00 2.2048122e-02 
-2.5531337e-04 0.0000000e+00 1.9385783e-02 
-2.5531337e-04 0.0000000e+00 1.9385783e-02 
-1.1226017e-03 0.0000000e+00 2.2291242e-02 
-1.1226017e-03 0.0000000e+00 2.2291242e-02 
-2.3415552e-04 0.0000000e+00 1.9973804e-02 
-2.3415552e-04 0.0000000e+00 1.9973804e-02 
-1.1139236e-03 0.0000000e+00 2.2526054e-02 
-1.1139236e-03 0.0000000e+00 2.2526054e-02 
-2.1103282e-04 0.0000000e+00 2.0548568e-02 
-2.1103282e-04 0.0000000e+00 2.0548568e-02 
-1.1043796e-03 0.0000000e+00 2.2752575e-02 
-1.1043796e-03 0.0000000e+00 2.2752575e-02 
-1.8600600e-04 0.0000000e+00 2.1110015e-02 
-1.8600600e-04 0.0000000e+00 2.1110015e-02 
-1.0939931e-03 0.0000000e+00 2.2970783e-02 
-1.0939931e-03 0.0000000e+00 2.2970783e-02 
-1.5913721e-04 0.0000000e+00 2.1658077e-02 
-1.5913721e-04 0.0000000e+00 2.1658077e-02 
-1.0827854e-03 0.0000000e+00 2.3180619e-02 
-1.0827854e-03 0.0000000e+00 2.3180619e-02 
-1.3048659e-04 0.0000000e+00 2.2192676e-02 
-1.3048659e-04 0.0000000e+00 2.2192676e-02 
-1.0707809e-03 0.0000000e+00 2.3382058e-02 
-1.0707809e-03 0.0000000e+00 2.3382058e-02 
-1.0011420e-04 0.0000000e+00 2.2713717e-02 
-1.0011420e-04 0.0000000e+00 2.2713717e-02 
-1.0580053e-03 0.0000000e+00 2.3575090e-02 
-1.0580053e-03 0.0000000e+00 2.3575090e-02 
-6.8082924e-05 0.0000000e+00 2.3221109e-02 
-6.8082924e-05 0.0000000e+00 2.3221109e-02 
-1.0444815e-03 0.0000000e+00 2.3759674e-02 
-1.0444815e-03 0.0000000e+00 2.3759674e-02 
-3.4461740e-05 0.0000000e+00 2.3714808e-02 
-3.4461740e-05 0.0000000e+00 2.3714808e-02 
-1.0302337e-03 0.0000000e+00 2.3935771e-02 
6.7850781e-07 0.0000000e+00 2.4194789e-02 
-1.0302337e-03 0.0000000e+00 2.3935771e-02 
6.7850781e-07 0.0000000e+00 2.4194789e-02 
3.7270194e-05 0.0000000e+00 2.4660995e-02 
-1.0152901e-03 0.0000000e+00 2.4103383e-02 
3.7270194e-05 0.0000000e+00 2.4660995e-02 
-1.0152901e-03 0.0000000e+00 2.4103383e-02 
7.5242799e-05 0.0000000e+00 2.5113379e-02 
-9.9967700e-04 0.0000000e+00 2.4262500e-02 
7.5242799e-05 0.0000000e+00 2.5113379e-02 
-9.9967700e-04 0.0000000e+00 2.4262500e-02 
1.1452093e-04 0.0000000e+00 2.5551949e-02 
1.1452093e-04 0.0000000e+00 2.5551949e-02 
-9.8341860e-04 0.0000000e+00 2.4413085e-02 
-9.8341860e-04 0.0000000e+00 2.4413085e-02 
1.5503052e-04 0.0000000e+00 2.5976704e-02 
1.5503052e-04 0.0000000e+00 2.5976704e-02 
-9.6654050e-04 0.0000000e+00 2.4555107e-02 
-9.6654050e-04 0.0000000e+00 2.4555107e-02 
1.9670205e-04 0.0000000e+00 2.6387592e-02 
1.9670205e-04 0.0000000e+00 2.6387592e-02 
-9.4906998e-04 0.0000000e+00 2.4688561e-02 
-9.4906998e-04 0.0000000e+00 2.4688561e-02 
2.3946417e-04 0.0000000e+00 2.6784550e-02 
2.3946417e-04 0.0000000e+00 2.6784550e-02 
-9.3103289e-04 0.0000000e+00 2.4813418e-02 
-9.3103289e-04 0.0000000e+00 2.4813418e-02 
2.8323936e-04 0.0000000e+00 2.7167592e-02 
2.8323936e-04 0.0000000e+00 2.7167592e-02 
-9.1245388e-04 0.0000000e+00 2.4929622e-02 
-9.1245388e-04 0.0000000e+00 2.4929622e-02 
3.2795029e-04 0.0000000e+00 2.7536762e-02 
3.2795029e-04 0.0000000e+00 2.7536762e-02 
-8.9335984e-04 0.0000000e+00 2.5037152e-02 
-8.9335984e-04 0.0000000e+00 2.5037152e-02 
3.7352451e-04 0.0000000e+00 2.7892034e-02 
3.7352451e-04 0.0000000e+00 2.7892034e-02 
-8.7377997e-04 0.0000000e+00 2.5136016e-02 
-8.7377997e-04 0.0000000e+00 2.5136016e-02 
4.1988839e-04 0.0000000e+00 2.8233352e-02 
4.1988839e-04 0.0000000e+00 2.8233352e-02 
-8.5374199e-04 0.0000000e+00 2.5226200e-02 
-8.5374199e-04 0.0000000e+00 2.5226200e-02 
4.6696258e-04 0.0000000e+00 2.8560742e-02 
4.6696258e-04 0.0000000e+00 2.8560742e-02 
-8.3327253e-04 0.0000000e+00 2.5307667e-02 
-8.3327253e-04 0.0000000e+00 2.5307667e-02 
5.1466886e-04 0.0000000e+00 2.8874306e-02 
5.1466886e-04 0.0000000e+00 2.8874306e-02 
-8.1239987e-04 0.0000000e+00 2.5380410e-02 
-8.1239987e-04 0.0000000e+00 2.5380410e-02 
5.6293313e-04 0.0000000e+00 2.9174066e-02 
5.6293313e-04 0.0000000e+00 2.9174066e-02 
-7.9115318e-04 0.0000000e+00 2.5444438e-02 
-7.9115318e-04 0.0000000e+00 2.5444438e-02 
6.1167820e-04 0.0000000e+00 2.9459990e-02 
6.1167820e-04 0.0000000e+00 2.9459990e-02 
-7.6956085e-04 0.0000000e+00 2.5499745e-02 
-7.6956085e-04 0.0000000e+00 2.5499745e-02 
6.6082310e-04 0.0000000e+00 2.9732181e-02 
6.6082310e-04 0.0000000e+00 2.9732181e-02 
-7.4765135e-04 0.0000000e+00 2.5546318e-02 
-7.4765135e-04 0.0000000e+00 2.5546318e-02 
7.1005052e-04 0.0000000e+00 2.9989628e-02 
7.1005052e-04 0.0000000e+00 2.9989628e-02 
-7.2538767e-04 0.0000000e+00 2.5584275e-02 
-7.2538767e-04 0.0000000e+00 2.5584275e-02 
7.6944966e-04 0.0000000e+00 3.0281081e-02 
7.6944966e-04 0.0000000e+00 3.0281081e-02 
-6.9833090e-04 0.0000000e+00 2.5618296e-02 
-6.9833090e-04 0.0000000e+00 2.5618296e-02 
8.4104418e-04 0.0000000e+00 3.0605845e-02 
8.4104418e-04 0.0000000e+00 3.0605845e-02 
-6.6544114e-04 0.0000000e+00 2.5642618e-02 
-6.6544114e-04 0.0000000e+00 2.5642618e-02 
9.2715401e-04 0.0000000e+00 3.0959986e-02 
9.2715401e-04 0.0000000e+00 3.0959986e-02 
-6.2588898e-04 0.0000000e+00 2.5648376e-02 
-6.2588898e-04 0.0000000e+00 2.5648376e-02 
1.0177807e-03 0.0000000e+00 3.1291449e-02 
1.0177807e-03 0.0000000e+00 3.1291449e-02 
-5.8594110e-04 0.0000000e+00 2.5629116e-02 
-5.8594110e-04 0.0000000e+00 2.5629116e-02 
1.1079123e-03 0.0000000e+00 3.1580177e-02 
1.1079123e-03 0.0000000e+00 3.1580177e-02 
-5.4573603e-04 0.0000000e+00 2.5584773e-02 
-5.4573603e-04 0.0000000e+00 2.5584773e-02 
1.1971639e-03 0.0000000e+00 3.1826277e-02 
1.1971639e-03 0.0000000e+00 3.1826277e-02 
-5.0541091e-04 0.0000000e+00 2.5515526e-02 
-5.0541091e-04 0.0000000e+00 2.5515526e-02 
1.2851557e-03 0.0000000e+00 3.2029976e-02 
1.2851557e-03 0.0000000e+00 3.2029976e-02 
-4.6510019e-04 0.0000000e+00 2.5421605e-02 
-4.6510019e-04 0.0000000e+00 2.5421605e-02 
1.3715159e-03 0.0000000e+00 3.2191553e-02 
1.3715159e-03 0.0000000e+00 3.2191553e-02 
-4.2493952e-04 0.0000000e+00 2.5303129e-02 
-4.2493952e-04 0.0000000e+00 2.5303129e-02 
1.4558838e-03 0.0000000e+00 3.2311380e-02 
1.4558838e-03 0.0000000e+00 3.2311380e-02 
-3.8505499e-04 0.0000000e+00 2.5160394e-02 
-3.8505499e-04 0.0000000e+00 2.5160394e-02 
1.5379074e-03 0.0000000e+00 3.2389808e-02 
1.5379074e-03 0.0000000e+00 3.2389808e-02 
-3.4556997e-04 0.0000000e+00 2.4993616e-02 
-3.4556997e-04 0.0000000e+00 2.4993616e-02 