# vtk DataFile Version 4.0
vtk output
ASCII
DATASET UNSTRUCTURED_GRID
POINTS 824 float
-6.4148600e-05 1.0000000e-02 -4.4525366e-03 
-1.0680180e-04 1.0000000e-02 -2.8088474e-03 
3.4513260e-04 1.0000000e-02 -6.0450544e-03 
1.3803532e-03 1.0000000e-02 -7.3230534e-03 
6.5829700e-05 1.0000000e-02 -1.1736922e-03 
2.7142144e-03 1.0000000e-02 -8.2851896e-03 
5.0392030e-04 1.0000000e-02 6.5784910e-04 
4.1780764e-03 1.0000000e-02 -9.0342357e-03 
1.1628646e-03 1.0000000e-02 2.4220088e-03 
5.7070961e-03 1.0000000e-02 -9.6390187e-03 
2.0046218e-03 1.0000000e-02 4.1066196e-03 
7.2731595e-03 1.0000000e-02 -1.0140047e-02 
-6.4148600e-05 0.0000000e+00 -4.4525366e-03 
-1.0680180e-04 0.0000000e+00 -2.8088474e-03 
3.4513260e-04 0.0000000e+00 -6.0450544e-03 
1.3803532e-03 0.0000000e+00 -7.3230534e-03 
6.5829700e-05 0.0000000e+00 -1.1736922e-03 
2.9952540e-03 1.0000000e-02 5.7082181e-03 
8.8622628e-03 1.0000000e-02 -1.0562311e-02 
2.7142144e-03 0.0000000e+00 -8.2851896e-03 
5.0392030e-04 0.0000000e+00 6.5784910e-04 
4.1780764e-03 0.0000000e+00 -9.0342357e-03 
1.1628646e-03 0.0000000e+00 2.4220088e-03 
1.0466628e-02 1.0000000e-02 -1.0922252e-02 
4.1067238e-03 1.0000000e-02 7.2284501e-03 
5.7070961e-03 0.0000000e+00 -9.6390187e-03 
2.0046218e-03 0.0000000e+00 4.1066196e-03 
7.2731595e-03 0.0000000e+00 -1.0140047e-02 
1.2081579e-02 1.0000000e-02 -1.1231240e-02 
5.3166988e-03 1.0000000e-02 8.6715129e-03 
2.9952540e-03 0.0000000e+00 5.7082181e-03 
8.8622628e-03 0.0000000e+00 -1.0562311e-02 
1.3704120e-02 1.0000000e-02 -1.1497501e-02 
1.0466628e-02 0.0000000e+00 -1.0922252e-02 
4.1067238e-03 0.0000000e+00 7.2284501e-03 
6.6076374e-03 1.0000000e-02 1.0042624e-02 
1.5332244e-02 1.0000000e-02 -1.1727173e-02 
1.2081579e-02 0.0000000e+00 -1.1231240e-02 
5.3166988e-03 0.0000000e+00 8.6715129e-03 
7.9658343e-03 1.0000000e-02 1.1347144e-02 
1.3704120e-02 0.0000000e+00 -1.1497501e-02 
1.6964543e-02 1.0000000e-02 -1.1925002e-02 
6.6076374e-03 0.0000000e+00 1.0042624e-02 
9.3804686e-03 1.0000000e-02 1.2590236e-02 
1.5332244e-02 0.0000000e+00 -1.1727173e-02 
1.8600004e-02 1.0000000e-02 -1.2094716e-02 
7.9658343e-03 0.0000000e+00 1.1347144e-02 
1.6964543e-02 0.0000000e+00 -1.1925002e-02 
1.0843002e-02 1.0000000e-02 1.3776601e-02 
2.0237876e-02 1.0000000e-02 -1.2239318e-02 
9.3804686e-03 0.0000000e+00 1.2590236e-02 
1.8600004e-02 0.0000000e+00 -1.2094716e-02 
1.2346566e-02 1.0000000e-02 1.4910517e-02 
2.1877591e-02 1.0000000e-02 -1.2361246e-02 
1.0843002e-02 0.0000000e+00 1.3776601e-02 
2.0237876e-02 0.0000000e+00 -1.2239318e-02 
1.3885623e-02 1.0000000e-02 1.5995768e-02 
2.3518711e-02 1.0000000e-02 -1.2462540e-02 
1.2346566e-02 0.0000000e+00 1.4910517e-02 
2.1877591e-02 0.0000000e+00 -1.2361246e-02 
2.5160890e-02 1.0000000e-02 -1.2544903e-02 
1.5455654e-02 1.0000000e-02 1.7035707e-02 
1.3885623e-02 0.0000000e+00 1.5995768e-02 
2.3518711e-02 0.0000000e+00 -1.2462540e-02 
2.6803852e-02 1.0000000e-02 -1.2609772e-02 
1.7052912e-02 1.0000000e-02 1.8033321e-02 
2.5160890e-02 0.0000000e+00 -1.2544903e-02 
1.5455654e-02 0.0000000e+00 1.7035707e-02 
2.8447376e-02 1.0000000e-02 -1.2658389e-02 
2.6803852e-02 0.0000000e+00 -1.2609772e-02 
1.7052912e-02 0.0000000e+00 1.8033321e-02 
1.8674284e-02 1.0000000e-02 1.8991246e-02 
3.0091279e-02 1.0000000e-02 -1.2691814e-02 
2.8447376e-02 0.0000000e+00 -1.2658389e-02 
1.8674284e-02 0.0000000e+00 1.8991246e-02 
2.0317149e-02 1.0000000e-02 1.9911822e-02 
3.0091279e-02 0.0000000e+00 -1.2691814e-02 
3.1735410e-02 1.0000000e-02 -1.2710971e-02 
2.0317149e-02 0.0000000e+00 1.9911822e-02 
2.1979295e-02 1.0000000e-02 2.0797113e-02 
3.1735410e-02 0.0000000e+00 -1.2710971e-02 
3.3379643e-02 1.0000000e-02 -1.2716676e-02 
2.1979295e-02 0.0000000e+00 2.0797113e-02 
2.3658832e-02 1.0000000e-02 2.1648949e-02 
3.3379643e-02 0.0000000e+00 -1.2716676e-02 
3.5023871e-02 1.0000000e-02 -1.2709629e-02 
2.3658832e-02 0.0000000e+00 2.1648949e-02 
2.5354100e-02 1.0000000e-02 2.2469029e-02 
3.5023871e-02 0.0000000e+00 -1.2709629e-02 
3.6668001e-02 1.0000000e-02 -1.2690457e-02 
2.5354100e-02 0.0000000e+00 2.2469029e-02 
2.7063712e-02 1.0000000e-02 2.3258772e-02 
3.6668001e-02 0.0000000e+00 -1.2690457e-02 
3.8312016e-02 1.0000000e-02 -1.2663038e-02 
2.7063712e-02 0.0000000e+00 2.3258772e-02 
3.8312016e-02 0.0000000e+00 -1.2663038e-02 
2.8786417e-02 1.0000000e-02 2.4019532e-02 
3.9956032e-02 1.0000000e-02 -1.2635752e-02 
2.8786417e-02 0.0000000e+00 2.4019532e-02 
3.9956032e-02 0.0000000e+00 -1.2635752e-02 
3.0521135e-02 1.0000000e-02 2.4752486e-02 
4.1600048e-02 1.0000000e-02 -1.2608467e-02 
3.0521135e-02 0.0000000e+00 2.4752486e-02 
4.1600048e-02 0.0000000e+00 -1.2608467e-02 
3.2266919e-02 1.0000000e-02 2.5458676e-02 
4.3299814e-02 1.0000000e-02 -1.2580255e-02 
3.2266919e-02 0.0000000e+00 2.5458676e-02 
4.3299814e-02 0.0000000e+00 -1.2580255e-02 
3.4022902e-02 1.0000000e-02 2.6139111e-02 
4.5339533e-02 1.0000000e-02 -1.2546402e-02 
3.4022902e-02 0.0000000e+00 2.6139111e-02 
4.5339533e-02 0.0000000e+00 -1.2546402e-02 
3.5788340e-02 1.0000000e-02 2.6794623e-02 
4.7787196e-02 1.0000000e-02 -1.2505778e-02 
3.5788340e-02 0.0000000e+00 2.6794623e-02 
3.7562554e-02 1.0000000e-02 2.7425996e-02 
4.7787196e-02 0.0000000e+00 -1.2505778e-02 
3.7562554e-02 0.0000000e+00 2.7425996e-02 
3.9344928e-02 1.0000000e-02 2.8033950e-02 
5.0379113e-02 1.0000000e-02 -1.2462760e-02 
3.9344928e-02 0.0000000e+00 2.8033950e-02 
5.0379113e-02 0.0000000e+00 -1.2462760e-02 
4.1134916e-02 1.0000000e-02 2.8619109e-02 
5.2971029e-02 1.0000000e-02 -1.2419741e-02 
4.1134916e-02 0.0000000e+00 2.8619109e-02 
5.2971029e-02 0.0000000e+00 -1.2419741e-02 
4.2932026e-02 1.0000000e-02 2.9182016e-02 
4.2932026e-02 0.0000000e+00 2.9182016e-02 
5.5562946e-02 1.0000000e-02 -1.2376723e-02 
4.5339682e-02 1.0000000e-02 2.9899231e-02 
5.5562946e-02 0.0000000e+00 -1.2376723e-02 
4.5339682e-02 0.0000000e+00 2.9899231e-02 
5.8154863e-02 1.0000000e-02 -1.2333705e-02 
4.7758221e-02 1.0000000e-02 3.0578844e-02 
5.8154863e-02 0.0000000e+00 -1.2333705e-02 
4.7758221e-02 0.0000000e+00 3.0578844e-02 
6.0746779e-02 1.0000000e-02 -1.2290686e-02 
5.0186760e-02 1.0000000e-02 3.1221807e-02 
6.0746779e-02 0.0000000e+00 -1.2290686e-02 
5.0186760e-02 0.0000000e+00 3.1221807e-02 
6.3338696e-02 1.0000000e-02 -1.2247668e-02 
5.2624513e-02 1.0000000e-02 3.1828903e-02 
6.3338696e-02 0.0000000e+00 -1.2247668e-02 
5.2624513e-02 0.0000000e+00 3.1828903e-02 
5.5070762e-02 1.0000000e-02 3.2400804e-02 
6.5930613e-02 1.0000000e-02 -1.2204650e-02 
5.5070762e-02 0.0000000e+00 3.2400804e-02 
6.5930613e-02 0.0000000e+00 -1.2204650e-02 
5.7524847e-02 1.0000000e-02 3.2938082e-02 
6.8522529e-02 1.0000000e-02 -1.2161631e-02 
5.7524847e-02 0.0000000e+00 3.2938082e-02 
6.8522529e-02 0.0000000e+00 -1.2161631e-02 
5.9986169e-02 1.0000000e-02 3.3441170e-02 
7.1114446e-02 1.0000000e-02 -1.2118613e-02 
5.9986169e-02 0.0000000e+00 3.3441170e-02 
7.1114446e-02 0.0000000e+00 -1.2118613e-02 
6.2454163e-02 1.0000000e-02 3.3910436e-02 
6.2454163e-02 0.0000000e+00 3.3910436e-02 
7.3706362e-02 1.0000000e-02 -1.2075595e-02 
7.3706362e-02 0.0000000e+00 -1.2075595e-02 
6.4928303e-02 1.0000000e-02 3.4346139e-02 
6.4928303e-02 0.0000000e+00 3.4346139e-02 
7.6298279e-02 1.0000000e-02 -1.2032577e-02 
7.6298279e-02 0.0000000e+00 -1.2032577e-02 
6.7408092e-02 1.0000000e-02 3.4748446e-02 
6.7408092e-02 0.0000000e+00 3.4748446e-02 
7.8890196e-02 1.0000000e-02 -1.1989558e-02 
7.8890196e-02 0.0000000e+00 -1.1989558e-02 
6.9893057e-02 1.0000000e-02 3.5117436e-02 
6.9893057e-02 0.0000000e+00 3.5117436e-02 
8.1482112e-02 1.0000000e-02 -1.1946540e-02 
8.1482112e-02 0.0000000e+00 -1.1946540e-02 
7.2382742e-02 1.0000000e-02 3.5453098e-02 
7.2382742e-02 0.0000000e+00 3.5453098e-02 
8.4074029e-02 1.0000000e-02 -1.1903522e-02 
7.4876707e-02 1.0000000e-02 3.5755332e-02 
8.4074029e-02 0.0000000e+00 -1.1903522e-02 
7.4876707e-02 0.0000000e+00 3.5755332e-02 
8.6665946e-02 1.0000000e-02 -1.1860503e-02 
7.7374516e-02 1.0000000e-02 3.6023948e-02 
8.6665946e-02 0.0000000e+00 -1.1860503e-02 
7.7374516e-02 0.0000000e+00 3.6023948e-02 
8.9257862e-02 1.0000000e-02 -1.1817485e-02 
7.9875738e-02 1.0000000e-02 3.6258665e-02 
8.9257862e-02 0.0000000e+00 -1.1817485e-02 
7.9875738e-02 0.0000000e+00 3.6258665e-02 
8.2379940e-02 1.0000000e-02 3.6459105e-02 
9.1849779e-02 1.0000000e-02 -1.1774467e-02 
8.2379940e-02 0.0000000e+00 3.6459105e-02 
9.1849779e-02 0.0000000e+00 -1.1774467e-02 
8.4886681e-02 1.0000000e-02 3.6624786e-02 
9.4441696e-02 1.0000000e-02 -1.1731448e-02 
8.4886681e-02 0.0000000e+00 3.6624786e-02 
9.4441696e-02 0.0000000e+00 -1.1731448e-02 
8.7395510e-02 1.0000000e-02 3.6755108e-02 
8.7395510e-02 0.0000000e+00 3.6755108e-02 
9.7033612e-02 1.0000000e-02 -1.1688430e-02 
9.7033612e-02 0.0000000e+00 -1.1688430e-02 
8.9905951e-02 1.0000000e-02 3.6849401e-02 
8.9905951e-02 0.0000000e+00 3.6849401e-02 
9.9625529e-02 1.0000000e-02 -1.1645412e-02 
9.9625529e-02 0.0000000e+00 -1.1645412e-02 
9.2417505e-02 1.0000000e-02 3.6906832e-02 
9.2417505e-02 0.0000000e+00 3.6906832e-02 
1.0221745e-01 1.0000000e-02 -1.1602393e-02 
1.0221745e-01 0.0000000e+00 -1.1602393e-02 
9.4929640e-02 1.0000000e-02 3.6926425e-02 
9.4929640e-02 0.0000000e+00 3.6926425e-02 
1.0480936e-01 1.0000000e-02 -1.1559375e-02 
1.0480936e-01 0.0000000e+00 -1.1559375e-02 
9.7441776e-02 1.0000000e-02 3.6907077e-02 
9.7441776e-02 0.0000000e+00 3.6907077e-02 
1.0740128e-01 1.0000000e-02 -1.1516357e-02 
1.0740128e-01 0.0000000e+00 -1.1516357e-02 
9.9953281e-02 1.0000000e-02 3.6847529e-02 
9.9953281e-02 0.0000000e+00 3.6847529e-02 
1.0999320e-01 1.0000000e-02 -1.1473339e-02 
1.0246345e-01 1.0000000e-02 3.6746314e-02 
1.0999320e-01 0.0000000e+00 -1.1473339e-02 
1.0246345e-01 0.0000000e+00 3.6746314e-02 
1.0497150e-01 1.0000000e-02 3.6601738e-02 
1.1258511e-01 1.0000000e-02 -1.1430320e-02 
1.0497150e-01 0.0000000e+00 3.6601738e-02 
1.1258511e-01 0.0000000e+00 -1.1430320e-02 
1.0747666e-01 1.0000000e-02 3.6413638e-02 
1.1517703e-01 1.0000000e-02 -1.1387302e-02 
1.0747666e-01 0.0000000e+00 3.6413638e-02 
[...]
POINT_DATA 824
FIELD FieldData 2
DISPLACEMENT 3 824  float
0.0000000e+00 0.0000000e+00 0.0000000e+00 
0.0000000e+00 0.0000000e+00 0.0000000e+00 
0.0000000e+00 0.0000000e+00 0.0000000e+00 
0.0000000e+00 0.0000000e+00 0.0000000e+00 
0.0000000e+00 0.0000000e+00 0.0000000e+00 
0.0000000e+00 0.0000000e+00 0.0000000e+00 
0.0000000e+00 0.0000000e+00 0.0000000e+00 
0.0000000e+00 0.0000000e+00 0.0000000e+00 
0.0000000e+00 0.0000000e+00 0.0000000e+00 
0.0000000e+00 0.0000000e+00 0.0000000e+00 
0.0000000e+00 0.0000000e+00 0.0000000e+00 
0.0000000e+00 0.0000000e+00 0.0000000e+00 
0.0000000e+00 0.0000000e+00 0.0000000e+00 
0.0000000e+00 0.0000000e+00 0.0000000e+00 
0.0000000e+00 0.0000000e+00 0.0000000e+00 
0.0000000e+00 0.0000000e+00 0.0000000e+00 
0.0000000e+00 0.0000000e+00 0.0000000e+00 
0.0000000e+00 0.0000000e+00 0.0000000e+00 
0.0000000e+00 0.0000000e+00 0.0000000e+00 
0.0000000e+00 0.0000000e+00 0.0000000e+00 
0.0000000e+00 0.0000000e+00 0.0000000e+00 
0.0000000e+00 0.0000000e+00 0.0000000e+00 
0.0000000e+00 0.0000000e+00 0.0000000e+00 
0.0000000e+00 0.0000000e+00 0.0000000e+00 
0.0000000e+00 0.0000000e+00 0.0000000e+00 
0.0000000e+00 0.0000000e+00 0.0000000e+00 
0.0000000e+00 0.0000000e+00 0.0000000e+00 
0.0000000e+00 0.0000000e+00 0.0000000e+00 
0.0000000e+00 0.0000000e+00 0.0000000e+00 
0.0000000e+00 0.0000000e+00 0.0000000e+00 
0.0000000e+00 0.0000000e+00 0.0000000e+00 
0.0000000e+00 0.0000000e+00 0.0000000e+00 
0.0000000e+00 0.0000000e+00 0.0000000e+00 
0.0000000e+00 0.0000000e+00 0.0000000e+00 
0.0000000e+00 0.0000000e+00 0.0000000e+00 
0.0000000e+00 0.0000000e+00 0.0000000e+00 
0.0000000e+00 0.0000000e+00 0.0000000e+00 
0.0000000e+00 0.0000000e+00 0.0000000e+00 
0.0000000e+00 0.0000000e+00 0.0000000e+00 
0.0000000e+00 0.0000000e+00 0.0000000e+00 
0.0000000e+00 0.0000000e+00 0.0000000e+00 
0.0000000e+00 0.0000000e+00 0.0000000e+00 
0.0000000e+00 0.0000000e+00 0.0000000e+00 
0.0000000e+00 0.0000000e+00 0.0000000e+00 
0.0000000e+00 0.0000000e+00 0.0000000e+00 
0.0000000e+00 0.0000000e+00 0.0000000e+00 
0.0000000e+00 0.0000000e+00 0.0000000e+00 
0.0000000e+00 0.0000000e+00 0.0000000e+00 
0.0000000e+00 0.0000000e+00 0.0000000e+00 
0.0000000e+00 0.0000000e+00 0.0000000e+00 
0.0000000e+00 0.0000000e+00 0.0000000e+00 
0.0000000e+00 0.0000000e+00 0.0000000e+00 
0.0000000e+00 0.0000000e+00 0.0000000e+00 
0.0000000e+00 0.0000000e+00 0.0000000e+00 
0.0000000e+00 0.0000000e+00 0.0000000e+00 
0.0000000e+00 0.0000000e+00 0.0000000e+00 
0.0000000e+00 0.0000000e+00 0.0000000e+00 
0.0000000e+00 0.0000000e+00 0.0000000e+00 
0.0000000e+00 0.0000000e+00 0.0000000e+00 
0.0000000e+00 0.0000000e+00 0.0000000e+00 
0.0000000e+00 0.0000000e+00 0.0000000e+00 
0.0000000e+00 0.0000000e+00 0.0000000e+00 
0.0000000e+00 0.0000000e+00 0.0000000e+00 
0.0000000e+00 0.0000000e+00 0.0000000e+00 
0.0000000e+00 0.0000000e+00 0.0000000e+00 
0.0000000e+00 0.0000000e+00 0.0000000e+00 
0.0000000e+00 0.0000000e+00 0.0000000e+00 
0.0000000e+00 0.0000000e+00 0.0000000e+00 
0.0000000e+00 0.0000000e+00 0.0000000e+00 
0.0000000e+00 0.0000000e+00 0.0000000e+00 
0.0000000e+00 0.0000000e+00 0.0000000e+00 
0.0000000e+00 0.0000000e+00 0.0000000e+00 
0.0000000e+00 0.0000000e+00 0.0000000e+00 
0.0000000e+00 0.0000000e+00 0.0000000e+00 
0.0000000e+00 0.0000000e+00 0.0000000e+00 
0.0000000e+00 0.0000000e+00 0.0000000e+00 
0.0000000e+00 0.0000000e+00 0.0000000e+00 
0.0000000e+00 0.0000000e+00 0.0000000e+00 
0.0000000e+00 0.0000000e+00 0.0000000e+00 
0.0000000e+00 0.0000000e+00 0.0000000e+00 
0.0000000e+00 0.0000000e+00 0.0000000e+00 
0.0000000e+00 0.0000000e+00 0.0000000e+00 
0.0000000e+00 0.0000000e+00 0.0000000e+00 
0.0000000e+00 0.0000000e+00 0.0000000e+00 
0.0000000e+00 0.0000000e+00 0.0000000e+00 
0.0000000e+00 0.0000000e+00 0.0000000e+00 
0.0000000e+00 0.0000000e+00 0.0000000e+00 
0.0000000e+00 0.0000000e+00 0.0000000e+00 
0.0000000e+00 0.0000000e+00 0.0000000e+00 
0.0000000e+00 0.0000000e+00 0.0000000e+00 
0.0000000e+00 0.0000000e+00 0.0000000e+00 
0.0000000e+00 0.0000000e+00 0.0000000e+00 
0.0000000e+00 0.0000000e+00 0.0000000e+00 
0.0000000e+00 0.0000000e+00 0.0000000e+00 
0.0000000e+00 0.0000000e+00 0.0000000e+00 
0.0000000e+00 0.0000000e+00 0.0000000e+00 
0.0000000e+00 0.0000000e+00 0.0000000e+00 
-3.3073321e-05 0.0000000e+00 3.7137925e-04 
0.0000000e+00 0.0000000e+00 0.0000000e+00 
-3.3073321e-05 0.0000000e+00 3.7137925e-04 
0.0000000e+00 0.0000000e+00 0.0000000e+00 
-6.5899209e-05 0.0000000e+00 7.4174713e-04 
0.0000000e+00 0.0000000e+00 0.0000000e+00 
-6.5899209e-05 0.0000000e+00 7.4174713e-04 
0.0000000e+00 0.0000000e+00 0.0000000e+00 
-9.9544298e-05 0.0000000e+00 1.1234688e-03 
0.0000000e+00 0.0000000e+00 0.0000000e+00 
-9.9544298e-05 0.0000000e+00 1.1234688e-03 
0.0000000e+00 0.0000000e+00 0.0000000e+00 
-1.3947812e-04 0.0000000e+00 1.5797294e-03 
0.0000000e+00 0.0000000e+00 0.0000000e+00 
-1.3947812e-04 0.0000000e+00 1.5797294e-03 
0.0000000e+00 0.0000000e+00 0.0000000e+00 
-1.8670895e-04 0.0000000e+00 2.1244061e-03 
0.0000000e+00 0.0000000e+00 0.0000000e+00 
0.0000000e+00 0.0000000e+00 0.0000000e+00 
-1.8670895e-04 0.0000000e+00 2.1244061e-03 
0.0000000e+00 0.0000000e+00 0.0000000e+00 
0.0000000e+00 0.0000000e+00 0.0000000e+00 
-2.3581001e-04 0.0000000e+00 2.6974166e-03 
0.0000000e+00 0.0000000e+00 0.0000000e+00 
-2.3581001e-04 0.0000000e+00 2.6974166e-03 
0.0000000e+00 0.0000000e+00 0.0000000e+00 
-2.8386140e-04 0.0000000e+00 3.2660732e-03 
0.0000000e+00 0.0000000e+00 0.0000000e+00 
-2.8386140e-04 0.0000000e+00 3.2660732e-03 
0.0000000e+00 0.0000000e+00 0.0000000e+00 
0.0000000e+00 0.0000000e+00 0.0000000e+00 
-3.3075928e-04 0.0000000e+00 3.8299162e-03 
0.0000000e+00 0.0000000e+00 0.0000000e+00 
-3.3075928e-04 0.0000000e+00 3.8299162e-03 
0.0000000e+00 0.0000000e+00 0.0000000e+00 
-3.7639931e-04 0.0000000e+00 4.3884543e-03 
0.0000000e+00 0.0000000e+00 0.0000000e+00 
-3.7639931e-04 0.0000000e+00 4.3884543e-03 
0.0000000e+00 0.0000000e+00 0.0000000e+00 
-4.2072627e-04 0.0000000e+00 4.9413922e-03 
0.0000000e+00 0.0000000e+00 0.0000000e+00 
-4.2072627e-04 0.0000000e+00 4.9413922e-03 
0.0000000e+00 0.0000000e+00 0.0000000e+00 
-4.6373945e-04 0.0000000e+00 5.4886795e-03 
0.0000000e+00 0.0000000e+00 0.0000000e+00 
-4.6373945e-04 0.0000000e+00 5.4886795e-03 
0.0000000e+00 0.0000000e+00 0.0000000e+00 
0.0000000e+00 0.0000000e+00 0.0000000e+00 
-5.0541290e-04 0.0000000e+00 6.0301510e-03 
0.0000000e+00 0.0000000e+00 0.0000000e+00 
-5.0541290e-04 0.0000000e+00 6.0301510e-03 
0.0000000e+00 0.0000000e+00 0.0000000e+00 
-5.4569897e-04 0.0000000e+00 6.5655240e-03 
0.0000000e+00 0.0000000e+00 0.0000000e+00 
-5.4569897e-04 0.0000000e+00 6.5655240e-03 
0.0000000e+00 0.0000000e+00 0.0000000e+00 
-5.8458568e-04 0.0000000e+00 7.0946694e-03 
0.0000000e+00 0.0000000e+00 0.0000000e+00 
-5.8458568e-04 0.0000000e+00 7.0946694e-03 
0.0000000e+00 0.0000000e+00 0.0000000e+00 
0.0000000e+00 0.0000000e+00 0.0000000e+00 
-6.2209531e-04 0.0000000e+00 7.6176233e-03 
-6.2209531e-04 0.0000000e+00 7.6176233e-03 
0.0000000e+00 0.0000000e+00 0.0000000e+00 
0.0000000e+00 0.0000000e+00 0.0000000e+00 
-6.5822718e-04 0.0000000e+00 8.1343202e-03 
-6.5822718e-04 0.0000000e+00 8.1343202e-03 
0.0000000e+00 0.0000000e+00 0.0000000e+00 
0.0000000e+00 0.0000000e+00 0.0000000e+00 
-6.9294521e-04 0.0000000e+00 8.6445074e-03 
-6.9294521e-04 0.0000000e+00 8.6445074e-03 
0.0000000e+00 0.0000000e+00 0.0000000e+00 
0.0000000e+00 0.0000000e+00 0.0000000e+00 
-7.2624192e-04 0.0000000e+00 9.1480602e-03 
-7.2624192e-04 0.0000000e+00 9.1480602e-03 
0.0000000e+00 0.0000000e+00 0.0000000e+00 
0.0000000e+00 0.0000000e+00 0.0000000e+00 
-7.5815109e-04 0.0000000e+00 9.6450652e-03 
0.0000000e+00 0.0000000e+00 0.0000000e+00 
-7.5815109e-04 0.0000000e+00 9.6450652e-03 
0.0000000e+00 0.0000000e+00 0.0000000e+00 
-7.8868091e-04 0.0000000e+00 1.0135489e-02 
0.0000000e+00 0.0000000e+00 0.0000000e+00 
-7.8868091e-04 0.0000000e+00 1.0135489e-02 
0.0000000e+00 0.0000000e+00 0.0000000e+00 
-8.1781144e-04 0.0000000e+00 1.0619136e-02 
0.0000000e+00 0.0000000e+00 0.0000000e+00 
-8.1781144e-04 0.0000000e+00 1.0619136e-02 
0.0000000e+00 0.0000000e+00 0.0000000e+00 
0.0000000e+00 0.0000000e+00 0.0000000e+00 
-8.4555343e-04 0.0000000e+00 1.1095955e-02 
0.0000000e+00 0.0000000e+00 0.0000000e+00 
-8.4555343e-04 0.0000000e+00 1.1095955e-02 
0.0000000e+00 0.0000000e+00 0.0000000e+00 
-8.7194967e-04 0.0000000e+00 1.1566078e-02 
0.0000000e+00 0.0000000e+00 0.0000000e+00 
-8.7194967e-04 0.0000000e+00 1.1566078e-02 
0.0000000e+00 0.0000000e+00 0.0000000e+00 
0.0000000e+00 0.0000000e+00 0.0000000e+00 
-8.9701527e-04 0.0000000e+00 1.2029508e-02 
-8.9701527e-04 0.0000000e+00 1.2029508e-02 
0.0000000e+00 0.0000000e+00 0.0000000e+00 
0.0000000e+00 0.0000000e+00 0.0000000e+00 
-9.2072646e-04 0.0000000e+00 1.2486017e-02 
-9.2072646e-04 0.0000000e+00 1.2486017e-02 
0.0000000e+00 0.0000000e+00 0.0000000e+00 
0.0000000e+00 0.0000000e+00 0.0000000e+00 
-9.4308670e-04 0.0000000e+00 1.2935508e-02 
-9.4308670e-04 0.0000000e+00 1.2935508e-02 
0.0000000e+00 0.0000000e+00 0.0000000e+00 
0.0000000e+00 0.0000000e+00 0.0000000e+00 
-9.6413684e-04 0.0000000e+00 1.3378112e-02 
-9.6413684e-04 0.0000000e+00 1.3378112e-02 
0.0000000e+00 0.0000000e+00 0.0000000e+00 
0.0000000e+00 0.0000000e+00 0.0000000e+00 
-9.8389001e-04 0.0000000e+00 1.3813816e-02 
-9.8389001e-04 0.0000000e+00 1.3813816e-02 
0.0000000e+00 0.0000000e+00 0.0000000e+00 
0.0000000e+00 0.0000000e+00 0.0000000e+00 
-1.0023325e-03 0.0000000e+00 1.4242425e-02 
0.0000000e+00 0.0000000e+00 0.0000000e+00 
-1.0023325e-03 0.0000000e+00 1.4242425e-02 
0.0000000e+00 0.0000000e+00 0.0000000e+00 
-4.8111358e-05 0.0000000e+00 8.5897161e-04 
-1.0194795e-03 0.0000000e+00 1.4663895e-02 
-4.8111358e-05 0.0000000e+00 8.5897161e-04 
-1.0194795e-03 0.0000000e+00 1.4663895e-02 
-9.1780985e-05 0.0000000e+00 1.7560385e-03 
-1.0353714e-03 0.0000000e+00 1.5078361e-02 
-9.1780985e-05 0.0000000e+00 1.7560385e-03 
-1.0353714e-03 0.0000000e+00 1.5078361e-02 
-1.3271554e-04 0.0000000e+00 2.6591391e-03 
-1.3271554e-04 0.0000000e+00 2.6591391e-03 
-1.0500210e-03 0.0000000e+00 1.5485801e-02 
-1.0500210e-03 0.0000000e+00 1.5485801e-02 
-1.7175815e-04 0.0000000e+00 3.5555129e-03 
-1.7175815e-04 0.0000000e+00 3.5555129e-03 
-1.0634123e-03 0.0000000e+00 1.5885994e-02 
-1.0634123e-03 0.0000000e+00 1.5885994e-02 
-2.0889342e-04 0.0000000e+00 4.4450586e-03 
-2.0889342e-04 0.0000000e+00 4.4450586e-03 
-1.0755545e-03 0.0000000e+00 1.6278863e-02 
-1.0755545e-03 0.0000000e+00 1.6278863e-02 
-2.4400666e-04 0.0000000e+00 5.3273223e-03 
-2.4400666e-04 0.0000000e+00 5.3273223e-03 
-1.0864802e-03 0.0000000e+00 1.6664494e-02 
-1.0864802e-03 0.0000000e+00 1.6664494e-02 
-2.7691024e-04 0.0000000e+00 6.2015255e-03 
-2.7691024e-04 0.0000000e+00 6.2015255e-03 
-1.0961981e-03 0.0000000e+00 1.7042825e-02 
-1.0961981e-03 0.0000000e+00 1.7042825e-02 
-3.0746205e-04 0.0000000e+00 7.0670398e-03 
-3.0746205e-04 0.0000000e+00 7.0670398e-03 
-1.1047031e-03 0.0000000e+00 1.7413687e-02 
-3.3556452e-04 0.0000000e+00 7.9233647e-03 
-1.1047031e-03 0.0000000e+00 1.7413687e-02 
-3.3556452e-04 0.0000000e+00 7.9233647e-03 
-3.6113826e-04 0.0000000e+00 8.7700570e-03 
-1.1120141e-03 0.0000000e+00 1.7777041e-02 
-3.6113826e-04 0.0000000e+00 8.7700570e-03 
-1.1120141e-03 0.0000000e+00 1.7777041e-02 
-3.8412786e-04 0.0000000e+00 9.6067377e-03 
-1.1181629e-03 0.0000000e+00 1.8132964e-02 
-3.8412786e-04 0.0000000e+00 9.6067377e-03 
-1.1181629e-03 0.0000000e+00 1.8132964e-02 
-4.0450478e-04 0.0000000e+00 1.0433114e-02 
-4.0450478e-04 0.0000000e+00 1.0433114e-02 
-1.1231624e-03 0.0000000e+00 1.8481413e-02 
-1.1231624e-03 0.0000000e+00 1.8481413e-02 
-4.2227052e-04 0.0000000e+00 1.1249022e-02 
-4.2227052e-04 0.0000000e+00 1.1249022e-02 
-1.1270098e-03 0.0000000e+00 1.8822215e-02 
-1.1270098e-03 0.0000000e+00 1.8822215e-02 
-4.3740809e-04 0.0000000e+00 1.2054203e-02 
-4.3740809e-04 0.0000000e+00 1.2054203e-02 
-1.1297193e-03 0.0000000e+00 1.9155293e-02 
-1.1297193e-03 0.0000000e+00 1.9155293e-02 
-4.4988046e-04 0.0000000e+00 1.2848296e-02 
-4.4988046e-04 0.0000000e+00 1.2848296e-02 
-1.1313194e-03 0.0000000e+00 1.9480701e-02 
-1.1313194e-03 0.0000000e+00 1.9480701e-02 
-4.5968021e-04 0.0000000e+00 1.3631033e-02 
-4.5968021e-04 0.0000000e+00 1.3631033e-02 
-1.1318243e-03 0.0000000e+00 1.9798389e-02 
-1.1318243e-03 0.0000000e+00 1.9798389e-02 
-4.6681570e-04 0.0000000e+00 1.4402222e-02 
-4.6681570e-04 0.0000000e+00 1.4402222e-02 
-1.1312419e-03 0.0000000e+00 2.0108228e-02 
-1.1312419e-03 0.0000000e+00 2.0108228e-02 
-4.7128695e-04 0.0000000e+00 1.5161617e-02 
-4.7128695e-04 0.0000000e+00 1.5161617e-02 
-1.1295946e-03 0.0000000e+00 2.0410192e-02 
-1.1295946e-03 0.0000000e+00 2.0410192e-02 
-4.7309754e-04 0.0000000e+00 1.5908959e-02 
-4.7309754e-04 0.0000000e+00 1.5908959e-02 
-1.1269117e-03 0.0000000e+00 2.0704335e-02 
-4.7227250e-04 0.0000000e+00 1.6644081e-02 
-1.1269117e-03 0.0000000e+00 2.0704335e-02 
-4.7227250e-04 0.0000000e+00 1.6644081e-02 
-1.1232127e-03 0.0000000e+00 2.0990632e-02 
-4.6885385e-04 0.0000000e+00 1.7366890e-02 
-1.1232127e-03 0.0000000e+00 2.0990632e-02 
-4.6885385e-04 0.0000000e+00 1.7366890e-02 
-4.6286766e-04 0.0000000e+00 1.8077221e-02 
-1.1185080e-03 0.0000000e+00 2.1268966e-02 
-4.6286766e-04 0.0000000e+00 1.8077221e-02 
-1.1185080e-03 0.0000000e+00 2.1268966e-02 
-4.5432922e-04 0.0000000e+00 1.8774816e-02 
-4.5432922e-04 0.0000000e+00 1.8774816e-02 
-1.1128171e-03 0.0000000e+00 2.1539281e-02 
-1.1128171e-03 0.0000000e+00 2.1539281e-02 
-4.4327070e-04 0.0000000e+00 1.9459496e-02 
-4.4327070e-04 0.0000000e+00 1.9459496e-02 
-1.1061679e-03 0.0000000e+00 2.1801614e-02 
-1.1061679e-03 0.0000000e+00 2.1801614e-02 
-4.2972931e-04 0.0000000e+00 2.0131096e-02 
-4.2972931e-04 0.0000000e+00 2.0131096e-02 
-1.0985821e-03 0.0000000e+00 2.2055951e-02 
-1.0985821e-03 0.0000000e+00 2.2055951e-02 
-4.1373954e-04 0.0000000e+00 2.0789422e-02 
-4.1373954e-04 0.0000000e+00 2.0789422e-02 
-1.0900776e-03 0.0000000e+00 2.2302213e-02 
-1.0900776e-03 0.0000000e+00 2.2302213e-02 
-3.9534464e-04 0.0000000e+00 2.1434311e-02 
-3.9534464e-04 0.0000000e+00 2.1434311e-02 
-1.0806789e-03 0.0000000e+00 2.2540383e-02 
-1.0806789e-03 0.0000000e+00 2.2540383e-02 
-3.7459646e-04 0.0000000e+00 2.2065633e-02 
-3.7459646e-04 0.0000000e+00 2.2065633e-02 
-1.0704148e-03 0.0000000e+00 2.2770502e-02 
-1.0704148e-03 0.0000000e+00 2.2770502e-02 
-3.5155199e-04 0.0000000e+00 2.2683291e-02 
-3.5155199e-04 0.0000000e+00 2.2683291e-02 
-1.0593096e-03 0.0000000e+00 2.2992569e-02 
-1.0593096e-03 0.0000000e+00 2.2992569e-02 
-3.2626409e-04 0.0000000e+00 2.3287143e-02 
-3.2626409e-04 0.0000000e+00 2.3287143e-02 
-1.0473827e-03 0.0000000e+00 2.3206520e-02 
-1.0473827e-03 0.0000000e+00 2.3206520e-02 
-2.9878512e-04 0.0000000e+00 2.3877036e-02 
-2.9878512e-04 0.0000000e+00 2.3877036e-02 
-1.0346570e-03 0.0000000e+00 2.3412321e-02 
-1.0346570e-03 0.0000000e+00 2.3412321e-02 
-2.6917314e-04 0.0000000e+00 2.4452832e-02 
-2.6917314e-04 0.0000000e+00 2.4452832e-02 
-1.0211599e-03 0.0000000e+00 2.3609994e-02 
-1.0211599e-03 0.0000000e+00 2.3609994e-02 
-2.3748412e-04 0.0000000e+00 2.5014360e-02 
-2.3748412e-04 0.0000000e+00 2.5014360e-02 
-1.0069159e-03 0.0000000e+00 2.3799539e-02 
-1.0069159e-03 0.0000000e+00 2.3799539e-02 
-2.0377894e-04 0.0000000e+00 2.5561470e-02 
-2.0377894e-04 0.0000000e+00 2.5561470e-02 
-9.9194788e-04 0.0000000e+00 2.3980914e-02 
-1.6812944e-04 0.0000000e+00 2.6094079e-02 
-9.9194788e-04 0.0000000e+00 2.3980914e-02 
-1.6812944e-04 0.0000000e+00 2.6094079e-02 
-1.3060770e-04 0.0000000e+00 2.6612098e-02 
-9.7628176e-04 0.0000000e+00 2.4154107e-02 
-1.3060770e-04 0.0000000e+00 2.6612098e-02 
-9.7628176e-04 0.0000000e+00 2.4154107e-02 
-9.1284118e-05 0.0000000e+00 2.7115404e-02 
-9.5994495e-04 0.0000000e+00 2.4319143e-02 
-9.1284118e-05 0.0000000e+00 2.7115404e-02 
-9.5994495e-04 0.0000000e+00 2.4319143e-02 
-5.0232259e-05 0.0000000e+00 2.7603892e-02 
-5.0232259e-05 0.0000000e+00 2.7603892e-02 
-9.4296276e-04 0.0000000e+00 2.4476027e-02 
-9.4296276e-04 0.0000000e+00 2.4476027e-02 
-7.5308252e-06 0.0000000e+00 2.8077493e-02 
-7.5308252e-06 0.0000000e+00 2.8077493e-02 
-9.2535899e-04 0.0000000e+00 2.4624724e-02 
-9.2535899e-04 0.0000000e+00 2.4624724e-02 
3.6743356e-05 0.0000000e+00 2.8536110e-02 
3.6743356e-05 0.0000000e+00 2.8536110e-02 
-9.0715891e-04 0.0000000e+00 2.4765225e-02 
-9.0715891e-04 0.0000000e+00 2.4765225e-02 
8.2516702e-05 0.0000000e+00 2.8979574e-02 
8.2516702e-05 0.0000000e+00 2.8979574e-02 
-8.8838887e-04 0.0000000e+00 2.4897538e-02 
-8.8838887e-04 0.0000000e+00 2.4897538e-02 
1.2970805e-04 0.0000000e+00 2.9407770e-02 
1.2970805e-04 0.0000000e+00 2.9407770e-02 
-8.6907401e-04 0.0000000e+00 2.5021654e-02 
-8.6907401e-04 0.0000000e+00 2.5021654e-02 
1.7822846e-04 0.0000000e+00 2.9820678e-02 
1.7822846e-04 0.0000000e+00 2.9820678e-02 
-8.4923947e-04 0.0000000e+00 2.5137557e-02 
-8.4923947e-04 0.0000000e+00 2.5137557e-02 
2.2799357e-04 0.0000000e+00 3.0218217e-02 
2.2799357e-04 0.0000000e+00 3.0218217e-02 
-8.2891197e-04 0.0000000e+00 2.5245249e-02 
-8.2891197e-04 0.0000000e+00 2.5245249e-02 
2.7891987e-04 0.0000000e+00 3.0600219e-02 
2.7891987e-04 0.0000000e+00 3.0600219e-02 
-8.0811798e-04 0.0000000e+00 2.5344739e-02 
-8.0811798e-04 0.0000000e+00 2.5344739e-02 
3.3091249e-04 0.0000000e+00 3.0966631e-02 
3.3091249e-04 0.0000000e+00 3.0966631e-02 
-7.8688298e-04 0.0000000e+00 2.5436021e-02 
-7.8688298e-04 0.0000000e+00 2.5436021e-02 
3.8387196e-04 0.0000000e+00 3.1317555e-02 
3.8387196e-04 0.0000000e+00 3.1317555e-02 
-7.6523282e-04 0.0000000e+00 2.5519088e-02 
-7.6523282e-04 0.0000000e+00 2.5519088e-02 
4.3770626e-04 0.0000000e+00 3.1652976e-02 
4.3770626e-04 0.0000000e+00 3.1652976e-02 
-7.4319398e-04 0.0000000e+00 2.5593944e-02 
-7.4319398e-04 0.0000000e+00 2.5593944e-02 
4.9231981e-04 0.0000000e+00 3.1972774e-02 
4.9231981e-04 0.0000000e+00 3.1972774e-02 
-7.2079265e-04 0.0000000e+00 2.5660596e-02 
-7.2079265e-04 0.0000000e+00 2.5660596e-02 
5.4760550e-04 0.0000000e+00 3.2277071e-02 
5.4760550e-04 0.0000000e+00 3.2277071e-02 
-6.9805498e-04 0.0000000e+00 2.5719042e-02 
-6.9805498e-04 0.0000000e+00 2.5719042e-02 
6.0318739e-04 0.0000000e+00 3.2564831e-02 
6.0318739e-04 0.0000000e+00 3.2564831e-02 
-6.7493858e-04 0.0000000e+00 2.5769433e-02 
-6.7493858e-04 0.0000000e+00 2.5769433e-02 
6.7050261e-04 0.0000000e+00 3.2890598e-02 
6.7050261e-04 0.0000000e+00 3.2890598e-02 
-6.4682505e-04 0.0000000e+00 2.5819043e-02 
-6.4682505e-04 0.0000000e+00 2.5819043e-02 
7.5197470e-04 0.0000000e+00 3.3253580e-02 
7.5197470e-04 0.0000000e+00 3.3253580e-02 
-6.1261172e-04 0.0000000e+00 2.5862977e-02 
-6.1261172e-04 0.0000000e+00 2.5862977e-02 
8.5041495e-04 0.0000000e+00 3.3649239e-02 
8.5041495e-04 0.0000000e+00 3.3649239e-02 
-5.7139737e-04 0.0000000e+00 2.5893188e-02 
-5.7139737e-04 0.0000000e+00 2.5893188e-02 
9.5450682e-04 0.0000000e+00 3.4019052e-02 
9.5450682e-04 0.0000000e+00 3.4019052e-02 
-5.2967819e-04 0.0000000e+00 2.5899565e-02 
-5.2967819e-04 0.0000000e+00 2.5899565e-02 
1.0584748e-03 0.0000000e+00 3.4340174e-02 
1.0584748e-03 0.0000000e+00 3.4340174e-02 
-4.8758282e-04 0.0000000e+00 2.5882049e-02 
-4.8758282e-04 0.0000000e+00 2.5882049e-02 
1.1618075e-03 0.0000000e+00 3.4612379e-02 
1.1618075e-03 0.0000000e+00 3.4612379e-02 
-4.4523852e-04 0.0000000e+00 2.5840721e-02 
-4.4523852e-04 0.0000000e+00 2.5840721e-02 
1.2639880e-03 0.0000000e+00 3.4835661e-02 
1.2639880e-03 0.0000000e+00 3.4835661e-02 
-4.0277166e-04 0.0000000e+00 2.5775581e-02 
-4.0277166e-04 0.0000000e+00 2.5775581e-02 
1.3645032e-03 0.0000000e+00 3.5010130e-02 
1.3645032e-03 0.0000000e+00 3.5010130e-02 
-3.6031353e-04 0.0000000e+00 2.5686588e-02 
-3.6031353e-04 0.0000000e+00 2.5686588e-02 
1.4628528e-03 0.0000000e+00 3.5136111e-02 
1.4628528e-03 0.0000000e+00 3.5136111e-02 
-3.1798723e-04 0.0000000e+00 2.5573963e-02 
-3.1798723e-04 0.0000000e+00 2.5573963e-02 
1.5585539e-03 0.0000000e+00 3.5214054e-02 
1.5585539e-03 0.0000000e+00 3.5214054e-02 
-2.7591483e-04 0.0000000e+00 2.5437796e-02 