# vtk DataFile Version 4.0
vtk output
ASCII
DATASET UNSTRUCTURED_GRID
POINTS 824 float
-6.4148600e-05 1.0000000e-02 -4.4525366e-03 
-1.0680180e-04 1.0000000e-02 -2.8088474e-03 
3.4513260e-04 1.0000000e-02 -6.0450544e-03 
1.3803532e-03 1.0000000e-02 -7.3230534e-03 
6.5829700e-05 1.0000000e-02 -1.1736922e-03 
2.7142144e-03 1.0000000e-02 -8.2851896e-03 
5.0392030e-04 1.0000000e-02 6.5784910e-04 
4.1780764e-03 1.0000000e-02 -9.0342357e-03 
1.1628646e-03 1.0000000e-02 2.4220088e-03 
5.7070961e-03 1.0000000e-02 -9.6390187e-03 
2.0046218e-03 1.0000000e-02 4.1066196e-03 
7.2731595e-03 1.0000000e-02 -1.0140047e-02 
-6.4148600e-05 0.0000000e+00 -4.4525366e-03 
-1.0680180e-04 0.0000000e+00 -2.8088474e-03 
3.4513260e-04 0.0000000e+00 -6.0450544e-03 
1.3803532e-03 0.0000000e+00 -7.3230534e-03 
6.5829700e-05 0.0000000e+00 -1.1736922e-03 
2.9952540e-03 1.0000000e-02 5.7082181e-03 
8.8622628e-03 1.0000000e-02 -1.0562311e-02 
2.7142144e-03 0.0000000e+00 -8.2851896e-03 
5.0392030e-04 0.0000000e+00 6.5784910e-04 
4.1780764e-03 0.0000000e+00 -9.0342357e-03 
1.1628646e-03 0.0000000e+00 2.4220088e-03 
1.0466628e-02 1.0000000e-02 -1.0922252e-02 
4.1067238e-03 1.0000000e-02 7.2284501e-03 
5.7070961e-03 0.0000000e+00 -9.6390187e-03 
2.0046218e-03 0.0000000e+00 4.1066196e-03 
7.2731595e-03 0.0000000e+00 -1.0140047e-02 
1.2081579e-02 1.0000000e-02 -1.1231240e-02 
5.3166988e-03 1.0000000e-02 8.6715129e-03 
2.9952540e-03 0.0000000e+00 5.7082181e-03 
8.8622628e-03 0.0000000e+00 -1.0562311e-02 
1.3704120e-02 1.0000000e-02 -1.1497501e-02 
1.0466628e-02 0.0000000e+00 -1.0922252e-02 
4.1067238e-03 0.0000000e+00 7.2284501e-03 
6.6076374e-03 1.0000000e-02 1.0042624e-02 
1.5332244e-02 1.0000000e-02 -1.1727173e-02 
1.2081579e-02 0.0000000e+00 -1.1231240e-02 
5.3166988e-03 0.0000000e+00 8.6715129e-03 
7.9658343e-03 1.0000000e-02 1.1347144e-02 
1.3704120e-02 0.0000000e+00 -1.1497501e-02 
1.6964543e-02 1.0000000e-02 -1.1925002e-02 
6.6076374e-03 0.0000000e+00 1.0042624e-02 
9.3804686e-03 1.0000000e-02 1.2590236e-02 
1.5332244e-02 0.0000000e+00 -1.1727173e-02 
1.8600004e-02 1.0000000e-02 -1.2094716e-02 
7.9658343e-03 0.0000000e+00 1.1347144e-02 
1.6964543e-02 0.0000000e+00 -1.1925002e-02 
1.0843002e-02 1.0000000e-02 1.3776601e-02 
2.0237876e-02 1.0000000e-02 -1.2239318e-02 
9.3804686e-03 0.0000000e+00 1.2590236e-02 
1.8600004e-02 0.0000000e+00 -1.2094716e-02 
1.2346566e-02 1.0000000e-02 1.4910517e-02 
2.1877591e-02 1.0000000e-02 -1.2361246e-02 
1.0843002e-02 0.0000000e+00 1.3776601e-02 
2.0237876e-02 0.0000000e+00 -1.2239318e-02 
1.3885623e-02 1.0000000e-02 1.5995768e-02 
2.3518711e-02 1.0000000e-02 -1.2462540e-02 
1.2346566e-02 0.0000000e+00 1.4910517e-02 
2.1877591e-02 0.0000000e+00 -1.2361246e-02 
2.5160890e-02 1.0000000e-02 -1.2544903e-02 
1.5455654e-02 1.0000000e-02 1.7035707e-02 
1.3885623e-02 0.0000000e+00 1.5995768e-02 
2.3518711e-02 0.0000000e+00 -1.2462540e-02 
2.6803852e-02 1.0000000e-02 -1.2609772e-02 
1.7052912e-02 1.0000000e-02 1.8033321e-02 
2.5160890e-02 0.0000000e+00 -1.2544903e-02 
1.5455654e-02 0.0000000e+00 1.7035707e-02 
2.8447376e-02 1.0000000e-02 -1.2658389e-02 
2.6803852e-02 0.0000000e+00 -1.2609772e-02 
1.7052912e-02 0.0000000e+00 1.8033321e-02 
1.8674284e-02 1.0000000e-02 1.8991246e-02 
3.0091279e-02 1.0000000e-02 -1.2691814e-02 
2.8447376e-02 0.0000000e+00 -1.2658389e-02 
1.8674284e-02 0.0000000e+00 1.8991246e-02 
2.0317149e-02 1.0000000e-02 1.9911822e-02 
3.0091279e-02 0.0000000e+00 -1.2691814e-02 
3.1735410e-02 1.0000000e-02 -1.2710971e-02 
2.0317149e-02 0.0000000e+00 1.9911822e-02 
2.1979295e-02 1.0000000e-02 2.0797113e-02 
3.1735410e-02 0.0000000e+00 -1.2710971e-02 
3.3379643e-02 1.0000000e-02 -1.2716676e-02 
2.1979295e-02 0.0000000e+00 2.0797113e-02 
2.3658832e-02 1.0000000e-02 2.1648949e-02 
3.3379643e-02 0.0000000e+00 -1.2716676e-02 
3.5023871e-02 1.0000000e-02 -1.2709629e-02 
2.3658832e-02 0.0000000e+00 2.1648949e-02 
2.5354100e-02 1.0000000e-02 2.2469029e-02 
3.5023871e-02 0.0000000e+00 -1.2709629e-02 
3.6668001e-02 1.0000000e-02 -1.2690457e-02 
2.5354100e-02 0.0000000e+00 2.2469029e-02 
2.7063712e-02 1.0000000e-02 2.3258772e-02 
3.6668001e-02 0.0000000e+00 -1.2690457e-02 
3.8312016e-02 1.0000000e-02 -1.2663038e-02 
2.7063712e-02 0.0000000e+00 2.3258772e-02 
3.8312016e-02 0.0000000e+00 -1.2663038e-02 
2.8786417e-02 1.0000000e-02 2.4019532e-02 
3.9956032e-02 1.0000000e-02 -1.2635752e-02 
2.8786417e-02 0.0000000e+00 2.4019532e-02 
3.9956032e-02 0.0000000e+00 -1.2635752e-02 
3.0521135e-02 1.0000000e-02 2.4752486e-02 
4.1600048e-02 1.0000000e-02 -1.2608467e-02 
3.0521135e-02 0.0000000e+00 2.4752486e-02 
4.1600048e-02 0.0000000e+00 -1.2608467e-02 
3.2266919e-02 1.0000000e-02 2.5458676e-02 
4.3299814e-02 1.0000000e-02 -1.2580255e-02 
3.2266919e-02 0.0000000e+00 2.5458676e-02 
4.3299814e-02 0.0000000e+00 -1.2580255e-02 
3.4022902e-02 1.0000000e-02 2.6139111e-02 
4.5339533e-02 1.0000000e-02 -1.2546402e-02 
3.4022902e-02 0.0000000e+00 2.6139111e-02 
4.5339533e-02 0.0000000e+00 -1.2546402e-02 
3.5788340e-02 1.0000000e-02 2.6794623e-02 
4.7787196e-02 1.0000000e-02 -1.2505778e-02 
3.5788340e-02 0.0000000e+00 2.6794623e-02 
3.7562554e-02 1.0000000e-02 2.7425996e-02 
4.7787196e-02 0.0000000e+00 -1.2505778e-02 
3.7562554e-02 0.0000000e+00 2.7425996e-02 
3.9344928e-02 1.0000000e-02 2.8033950e-02 
5.0379113e-02 1.0000000e-02 -1.2462760e-02 
3.9344928e-02 0.0000000e+00 2.8033950e-02 
5.0379113e-02 0.0000000e+00 -1.2462760e-02 
4.1134916e-02 1.0000000e-02 2.8619109e-02 
5.2971029e-02 1.0000000e-02 -1.2419741e-02 
4.1134916e-02 0.0000000e+00 2.8619109e-02 
5.2971029e-02 0.0000000e+00 -1.2419741e-02 
4.2932026e-02 1.0000000e-02 2.9182016e-02 
4.2932026e-02 0.0000000e+00 2.9182016e-02 
5.5562946e-02 1.0000000e-02 -1.2376723e-02 
4.5339682e-02 1.0000000e-02 2.9899231e-02 
5.5562946e-02 0.0000000e+00 -1.2376723e-02 
4.5339682e-02 0.0000000e+00 2.9899231e-02 
5.8154863e-02 1.0000000e-02 -1.2333705e-02 
4.7758221e-02 1.0000000e-02 3.0578844e-02 
5.8154863e-02 0.0000000e+00 -1.2333705e-02 
4.7758221e-02 0.0000000e+00 3.0578844e-02 
6.0746779e-02 1.0000000e-02 -1.2290686e-02 
5.0186760e-02 1.0000000e-02 3.1221807e-02 
6.0746779e-02 0.0000000e+00 -1.2290686e-02 
5.0186760e-02 0.0000000e+00 3.1221807e-02 
6.3338696e-02 1.0000000e-02 -1.2247668e-02 
5.2624513e-02 1.0000000e-02 3.1828903e-02 
6.3338696e-02 0.0000000e+00 -1.2247668e-02 
5.2624513e-02 0.0000000e+00 3.1828903e-02 
5.5070762e-02 1.0000000e-02 3.2400804e-02 
6.5930613e-02 1.0000000e-02 -1.2204650e-02 
5.5070762e-02 0.0000000e+00 3.2400804e-02 
6.5930613e-02 0.0000000e+00 -1.2204650e-02 
5.7524847e-02 1.0000000e-02 3.2938082e-02 
6.8522529e-02 1.0000000e-02 -1.2161631e-02 
5.7524847e-02 0.0000000e+00 3.2938082e-02 
6.8522529e-02 0.0000000e+00 -1.2161631e-02 
5.9986169e-02 1.0000000e-02 3.3441170e-02 
7.1114446e-02 1.0000000e-02 -1.2118613e-02 
5.9986169e-02 0.0000000e+00 3.3441170e-02 
7.1114446e-02 0.0000000e+00 -1.2118613e-02 
6.2454163e-02 1.0000000e-02 3.3910436e-02 
6.2454163e-02 0.0000000e+00 3.3910436e-02 
7.3706362e-02 1.0000000e-02 -1.2075595e-02 
7.3706362e-02 0.0000000e+00 -1.2075595e-02 
6.4928303e-02 1.0000000e-02 3.4346139e-02 
6.4928303e-02 0.0000000e+00 3.4346139e-02 
7.6298279e-02 1.0000000e-02 -1.2032577e-02 
7.6298279e-02 0.0000000e+00 -1.2032577e-02 
6.7408092e-02 1.0000000e-02 3.4748446e-02 
6.7408092e-02 0.0000000e+00 3.4748446e-02 
7.8890196e-02 1.0000000e-02 -1.1989558e-02 
7.8890196e-02 0.0000000e+00 -1.1989558e-02 
6.9893057e-02 1.0000000e-02 3.5117436e-02 
6.9893057e-02 0.0000000e+00 3.5117436e-02 
8.1482112e-02 1.0000000e-02 -1.1946540e-02 
8.1482112e-02 0.0000000e+00 -1.1946540e-02 
7.2382742e-02 1.0000000e-02 3.5453098e-02 
7.2382742e-02 0.0000000e+00 3.5453098e-02 
8.4074029e-02 1.0000000e-02 -1.1903522e-02 
7.4876707e-02 1.0000000e-02 3.5755332e-02 
8.4074029e-02 0.0000000e+00 -1.1903522e-02 
7.4876707e-02 0.0000000e+00 3.5755332e-02 
8.6665946e-02 1.0000000e-02 -1.1860503e-02 
7.7374516e-02 1.0000000e-02 3.6023948e-02 
8.6665946e-02 0.0000000e+00 -1.1860503e-02 
7.7374516e-02 0.0000000e+00 3.6023948e-02 
8.9257862e-02 1.0000000e-02 -1.1817485e-02 
7.9875738e-02 1.0000000e-02 3.6258665e-02 
8.9257862e-02 0.0000000e+00 -1.1817485e-02 
7.9875738e-02 0.0000000e+00 3.6258665e-02 
8.2379940e-02 1.0000000e-02 3.6459105e-02 
9.1849779e-02 1.0000000e-02 -1.1774467e-02 
8.2379940e-02 0.0000000e+00 3.6459105e-02 
9.1849779e-02 0.0000000e+00 -1.1774467e-02 
8.4886681e-02 1.0000000e-02 3.6624786e-02 
9.4441696e-02 1.0000000e-02 -1.1731448e-02 
8.4886681e-02 0.0000000e+00 3.6624786e-02 
9.4441696e-02 0.0000000e+00 -1.1731448e-02 
8.7395510e-02 1.0000000e-02 3.6755108e-02 
8.7395510e-02 0.0000000e+00 3.6755108e-02 
9.7033612e-02 1.0000000e-02 -1.1688430e-02 
9.7033612e-02 0.0000000e+00 -1.1688430e-02 
8.9905951e-02 1.0000000e-02 3.6849401e-02 
8.9905951e-02 0.0000000e+00 3.6849401e-02 
9.9625529e-02 1.0000000e-02 -1.1645412e-02 
9.9625529e-02 0.0000000e+00 -1.1645412e-02 
9.2417505e-02 1.0000000e-02 3.6906832e-02 
9.2417505e-02 0.0000000e+00 3.6906832e-02 
1.0221745e-01 1.0000000e-02 -1.1602393e-02 
1.0221745e-01 0.0000000e+00 -1.1602393e-02 
9.4929640e-02 1.0000000e-02 3.6926425e-02 
9.4929640e-02 0.0000000e+00 3.6926425e-02 
1.0480936e-01 1.0000000e-02 -1.1559375e-02 
1.0480936e-01 0.0000000e+00 -1.1559375e-02 
9.7441776e-02 1.0000000e-02 3.6907077e-02 
9.7441776e-02 0.0000000e+00 3.6907077e-02 
1.0740128e-01 1.0000000e-02 -1.1516357e-02 
1.0740128e-01 0.0000000e+00 -1.1516357e-02 
9.9953281e-02 1.0000000e-02 3.6847529e-02 
9.9953281e-02 0.0000000e+00 3.6847529e-02 
1.0999320e-01 1.0000000e-02 -1.1473339e-02 
1.0246345e-01 1.0000000e-02 3.6746314e-02 
1.0999320e-01 0.0000000e+00 -1.1473339e-02 
1.0246345e-01 0.0000000e+00 3.6746314e-02 
1.0497150e-01 1.0000000e-02 3.6601738e-02 
1.1258511e-01 1.0000000e-02 -1.1430320e-02 
1.0497150e-01 0.0000000e+00 3.6601738e-02 
1.1258511e-01 0.0000000e+00 -1.1430320e-02 
1.0747666e-01 1.0000000e-02 3.6413638e-02 
1.1517703e-01 1.0000000e-02 -1.1387302e-02 
1.0747666e-01 0.0000000e+00 3.6413638e-02 
[...]
POINT_DATA 824
FIELD FieldData 2
DISPLACEMENT 3 824  float
0.0000000e+00 0.0000000e+00 0.0000000e+00 
0.0000000e+00 0.0000000e+00 0.0000000e+00 
0.0000000e+00 0.0000000e+00 0.0000000e+00 
0.0000000e+00 0.0000000e+00 0.0000000e+00 
0.0000000e+00 0.0000000e+00 0.0000000e+00 
0.0000000e+00 0.0000000e+00 0.0000000e+00 
0.0000000e+00 0.0000000e+00 0.0000000e+00 
0.0000000e+00 0.0000000e+00 0.0000000e+00 
0.0000000e+00 0.0000000e+00 0.0000000e+00 
0.0000000e+00 0.0000000e+00 0.0000000e+00 
0.0000000e+00 0.0000000e+00 0.0000000e+00 
0.0000000e+00 0.0000000e+00 0.0000000e+00 
0.0000000e+00 0.0000000e+00 0.0000000e+00 
0.0000000e+00 0.0000000e+00 0.0000000e+00 
0.0000000e+00 0.0000000e+00 0.0000000e+00 
0.0000000e+00 0.0000000e+00 0.0000000e+00 
0.0000000e+00 0.0000000e+00 0.0000000e+00 
0.0000000e+00 0.0000000e+00 0.0000000e+00 
0.0000000e+00 0.0000000e+00 0.0000000e+00 
0.0000000e+00 0.0000000e+00 0.0000000e+00 
0.0000000e+00 0.0000000e+00 0.0000000e+00 
0.0000000e+00 0.0000000e+00 0.0000000e+00 
0.0000000e+00 0.0000000e+00 0.0000000e+00 
0.0000000e+00 0.0000000e+00 0.0000000e+00 
0.0000000e+00 0.0000000e+00 0.0000000e+00 
0.0000000e+00 0.0000000e+00 0.0000000e+00 
0.0000000e+00 0.0000000e+00 0.0000000e+00 
0.0000000e+00 0.0000000e+00 0.0000000e+00 
0.0000000e+00 0.0000000e+00 0.0000000e+00 
0.0000000e+00 0.0000000e+00 0.0000000e+00 
0.0000000e+00 0.0000000e+00 0.0000000e+00 
0.0000000e+00 0.0000000e+00 0.0000000e+00 
0.0000000e+00 0.0000000e+00 0.0000000e+00 
0.0000000e+00 0.0000000e+00 0.0000000e+00 
0.0000000e+00 0.0000000e+00 0.0000000e+00 
0.0000000e+00 0.0000000e+00 0.0000000e+00 
0.0000000e+00 0.0000000e+00 0.0000000e+00 
0.0000000e+00 0.0000000e+00 0.0000000e+00 
0.0000000e+00 0.0000000e+00 0.0000000e+00 
0.0000000e+00 0.0000000e+00 0.0000000e+00 
0.0000000e+00 0.0000000e+00 0.0000000e+00 
0.0000000e+00 0.0000000e+00 0.0000000e+00 
0.0000000e+00 0.0000000e+00 0.0000000e+00 
0.0000000e+00 0.0000000e+00 0.0000000e+00 
0.0000000e+00 0.0000000e+00 0.0000000e+00 
0.0000000e+00 0.0000000e+00 0.0000000e+00 
0.0000000e+00 0.0000000e+00 0.0000000e+00 
0.0000000e+00 0.0000000e+00 0.0000000e+00 
0.0000000e+00 0.0000000e+00 0.0000000e+00 
0.0000000e+00 0.0000000e+00 0.0000000e+00 
0.0000000e+00 0.0000000e+00 0.0000000e+00 
0.0000000e+00 0.0000000e+00 0.0000000e+00 
0.0000000e+00 0.0000000e+00 0.0000000e+00 
0.0000000e+00 0.0000000e+00 0.0000000e+00 
0.0000000e+00 0.0000000e+00 0.0000000e+00 
0.0000000e+00 0.0000000e+00 0.0000000e+00 
0.0000000e+00 0.0000000e+00 0.0000000e+00 
0.0000000e+00 0.0000000e+00 0.0000000e+00 
0.0000000e+00 0.0000000e+00 0.0000000e+00 
0.0000000e+00 0.0000000e+00 0.0000000e+00 
0.0000000e+00 0.0000000e+00 0.0000000e+00 
0.0000000e+00 0.0000000e+00 0.0000000e+00 
0.0000000e+00 0.0000000e+00 0.0000000e+00 
0.0000000e+00 0.0000000e+00 0.0000000e+00 
0.0000000e+00 0.0000000e+00 0.0000000e+00 
0.0000000e+00 0.0000000e+00 0.0000000e+00 
0.0000000e+00 0.0000000e+00 0.0000000e+00 
0.0000000e+00 0.0000000e+00 0.0000000e+00 
0.0000000e+00 0.0000000e+00 0.0000000e+00 
0.0000000e+00 0.0000000e+00 0.0000000e+00 
0.0000000e+00 0.0000000e+00 0.0000000e+00 
0.0000000e+00 0.0000000e+00 0.0000000e+00 
0.0000000e+00 0.0000000e+00 0.0000000e+00 
0.0000000e+00 0.0000000e+00 0.0000000e+00 
0.0000000e+00 0.0000000e+00 0.0000000e+00 
0.0000000e+00 0.0000000e+00 0.0000000e+00 
0.0000000e+00 0.0000000e+00 0.0000000e+00 
0.0000000e+00 0.0000000e+00 0.0000000e+00 
0.0000000e+00 0.0000000e+00 0.0000000e+00 
0.0000000e+00 0.0000000e+00 0.0000000e+00 
0.0000000e+00 0.0000000e+00 0.0000000e+00 
0.0000000e+00 0.0000000e+00 0.0000000e+00 
0.0000000e+00 0.0000000e+00 0.0000000e+00 
0.0000000e+00 0.0000000e+00 0.0000000e+00 
0.0000000e+00 0.0000000e+00 0.0000000e+00 
0.0000000e+00 0.0000000e+00 0.0000000e+00 
0.0000000e+00 0.0000000e+00 0.0000000e+00 
0.0000000e+00 0.0000000e+00 0.0000000e+00 
0.0000000e+00 0.0000000e+00 0.0000000e+00 
0.0000000e+00 0.0000000e+00 0.0000000e+00 
0.0000000e+00 0.0000000e+00 0.0000000e+00 
0.0000000e+00 0.0000000e+00 0.0000000e+00 
0.0000000e+00 0.0000000e+00 0.0000000e+00 
0.0000000e+00 0.0000000e+00 0.0000000e+00 
0.0000000e+00 0.0000000e+00 0.0000000e+00 
0.0000000e+00 0.0000000e+00 0.0000000e+00 
0.0000000e+00 0.0000000e+00 0.0000000e+00 
2.2020077e-03 0.0000000e+00 -1.1785475e-03 
0.0000000e+00 0.0000000e+00 0.0000000e+00 
2.2020077e-03 0.0000000e+00 -1.1785475e-03 
0.0000000e+00 0.0000000e+00 0.0000000e+00 
4.4004971e-03 0.0000000e+00 -2.3534822e-03 
0.0000000e+00 0.0000000e+00 0.0000000e+00 
4.4004971e-03 0.0000000e+00 -2.3534822e-03 
0.0000000e+00 0.0000000e+00 0.0000000e+00 
6.6693310e-03 0.0000000e+00 -3.5650552e-03 
0.0000000e+00 0.0000000e+00 0.0000000e+00 
6.6693310e-03 0.0000000e+00 -3.5650552e-03 
0.0000000e+00 0.0000000e+00 0.0000000e+00 
9.3851374e-03 0.0000000e+00 -5.0153437e-03 
0.0000000e+00 0.0000000e+00 0.0000000e+00 
9.3851374e-03 0.0000000e+00 -5.0153437e-03 
0.0000000e+00 0.0000000e+00 0.0000000e+00 
1.2626472e-02 0.0000000e+00 -6.7549726e-03 
0.0000000e+00 0.0000000e+00 0.0000000e+00 
0.0000000e+00 0.0000000e+00 0.0000000e+00 
1.2626472e-02 0.0000000e+00 -6.7549726e-03 
0.0000000e+00 0.0000000e+00 0.0000000e+00 
3.1072768e-03 0.0000000e+00 -1.0020556e-03 
1.6029423e-02 0.0000000e+00 -8.6020100e-03 
3.1072768e-03 0.0000000e+00 -1.0020556e-03 
1.6029423e-02 0.0000000e+00 -8.6020100e-03 
6.1946411e-03 0.0000000e+00 -1.9793007e-03 
1.9399810e-02 0.0000000e+00 -1.0457296e-02 
6.1946411e-03 0.0000000e+00 -1.9793007e-03 
1.9399810e-02 0.0000000e+00 -1.0457296e-02 
9.2630488e-03 0.0000000e+00 -2.9334099e-03 
9.2630488e-03 0.0000000e+00 -2.9334099e-03 
2.2735445e-02 0.0000000e+00 -1.2323886e-02 
1.3320777e-02 0.0000000e+00 -4.1784794e-03 
2.2735445e-02 0.0000000e+00 -1.2323886e-02 
1.3320777e-02 0.0000000e+00 -4.1784794e-03 
2.6034340e-02 0.0000000e+00 -1.4203470e-02 
1.7335768e-02 0.0000000e+00 -5.3979911e-03 
2.6034340e-02 0.0000000e+00 -1.4203470e-02 
1.7335768e-02 0.0000000e+00 -5.3979911e-03 
2.9294950e-02 0.0000000e+00 -1.6097663e-02 
2.1312052e-02 0.0000000e+00 -6.5928551e-03 
2.9294950e-02 0.0000000e+00 -1.6097663e-02 
2.1312052e-02 0.0000000e+00 -6.5928551e-03 
3.2514751e-02 0.0000000e+00 -1.8009857e-02 
2.5250448e-02 0.0000000e+00 -7.7644549e-03 
3.2514751e-02 0.0000000e+00 -1.8009857e-02 
2.5250448e-02 0.0000000e+00 -7.7644549e-03 
2.9152089e-02 0.0000000e+00 -8.9135379e-03 
3.5689751e-02 0.0000000e+00 -1.9944383e-02 
2.9152089e-02 0.0000000e+00 -8.9135379e-03 
3.5689751e-02 0.0000000e+00 -1.9944383e-02 
3.3018385e-02 0.0000000e+00 -1.0040401e-02 
3.8818963e-02 0.0000000e+00 -2.1903005e-02 
3.3018385e-02 0.0000000e+00 -1.0040401e-02 
3.8818963e-02 0.0000000e+00 -2.1903005e-02 
3.6849942e-02 0.0000000e+00 -1.1145444e-02 
4.1901330e-02 0.0000000e+00 -2.3887513e-02 
3.6849942e-02 0.0000000e+00 -1.1145444e-02 
4.1901330e-02 0.0000000e+00 -2.3887513e-02 
4.0646098e-02 0.0000000e+00 -1.2229420e-02 
4.0646098e-02 0.0000000e+00 -1.2229420e-02 
4.4931485e-02 0.0000000e+00 -2.5903260e-02 
4.4931485e-02 0.0000000e+00 -2.5903260e-02 
4.4406336e-02 0.0000000e+00 -1.3292173e-02 
4.4406336e-02 0.0000000e+00 -1.3292173e-02 
4.7903828e-02 0.0000000e+00 -2.7955826e-02 
4.7903828e-02 0.0000000e+00 -2.7955826e-02 
4.8130261e-02 0.0000000e+00 -1.4333273e-02 
4.8130261e-02 0.0000000e+00 -1.4333273e-02 
5.0813064e-02 0.0000000e+00 -3.0049859e-02 
5.0813064e-02 0.0000000e+00 -3.0049859e-02 
5.1817467e-02 0.0000000e+00 -1.5352759e-02 
5.1817467e-02 0.0000000e+00 -1.5352759e-02 
5.3653745e-02 0.0000000e+00 -3.2189865e-02 
5.3653745e-02 0.0000000e+00 -3.2189865e-02 
5.5467719e-02 0.0000000e+00 -1.6350479e-02 
5.5467719e-02 0.0000000e+00 -1.6350479e-02 
5.6420416e-02 0.0000000e+00 -3.4380772e-02 
5.9080778e-02 0.0000000e+00 -1.7325884e-02 
5.6420416e-02 0.0000000e+00 -3.4380772e-02 
5.9080778e-02 0.0000000e+00 -1.7325884e-02 
5.9108210e-02 0.0000000e+00 -3.6626898e-02 
6.2656388e-02 0.0000000e+00 -1.8278267e-02 
5.9108210e-02 0.0000000e+00 -3.6626898e-02 
6.2656388e-02 0.0000000e+00 -1.8278267e-02 
6.1716148e-02 0.0000000e+00 -3.8928948e-02 
6.6194227e-02 0.0000000e+00 -1.9207023e-02 
6.1716148e-02 0.0000000e+00 -3.8928948e-02 
6.6194227e-02 0.0000000e+00 -1.9207023e-02 
6.9693937e-02 0.0000000e+00 -2.0111355e-02 
6.4242689e-02 0.0000000e+00 -4.1287781e-02 
6.9693937e-02 0.0000000e+00 -2.0111355e-02 
6.4242689e-02 0.0000000e+00 -4.1287781e-02 
7.3155089e-02 0.0000000e+00 -2.0989540e-02 
6.6681687e-02 0.0000000e+00 -4.3708012e-02 
7.3155089e-02 0.0000000e+00 -2.0989540e-02 
6.6681687e-02 0.0000000e+00 -4.3708012e-02 
7.6577655e-02 0.0000000e+00 -2.1839546e-02 
7.6577655e-02 0.0000000e+00 -2.1839546e-02 
6.9027512e-02 0.0000000e+00 -4.6193791e-02 
6.9027512e-02 0.0000000e+00 -4.6193791e-02 
7.9961784e-02 0.0000000e+00 -2.2659916e-02 
7.9961784e-02 0.0000000e+00 -2.2659916e-02 
7.1274671e-02 0.0000000e+00 -4.8748759e-02 
7.1274671e-02 0.0000000e+00 -4.8748759e-02 
8.3307149e-02 0.0000000e+00 -2.3449069e-02 
8.3307149e-02 0.0000000e+00 -2.3449069e-02 
7.3415955e-02 0.0000000e+00 -5.1377580e-02 
7.3415955e-02 0.0000000e+00 -5.1377580e-02 
8.6613892e-02 0.0000000e+00 -2.4205011e-02 
8.6613892e-02 0.0000000e+00 -2.4205011e-02 
7.5442706e-02 0.0000000e+00 -5.4085909e-02 
7.5442706e-02 0.0000000e+00 -5.4085909e-02 
8.9883212e-02 0.0000000e+00 -2.4925360e-02 
8.9883212e-02 0.0000000e+00 -2.4925360e-02 
7.7345544e-02 0.0000000e+00 -5.6879556e-02 
7.7345544e-02 0.0000000e+00 -5.6879556e-02 
9.3116338e-02 0.0000000e+00 -2.5607512e-02 
9.3116338e-02 0.0000000e+00 -2.5607512e-02 
7.9117890e-02 0.0000000e+00 -5.9761188e-02 
9.6314336e-02 0.0000000e+00 -2.6248361e-02 
7.9117890e-02 0.0000000e+00 -5.9761188e-02 
9.6314336e-02 0.0000000e+00 -2.6248361e-02 
9.9473856e-02 0.0000000e+00 -2.6842765e-02 
8.0752587e-02 0.0000000e+00 -6.2733326e-02 
9.9473856e-02 0.0000000e+00 -2.6842765e-02 
8.0752587e-02 0.0000000e+00 -6.2733326e-02 
1.0259263e-01 0.0000000e+00 -2.7387126e-02 
8.2237640e-02 0.0000000e+00 -6.5801767e-02 
1.0259263e-01 0.0000000e+00 -2.7387126e-02 
8.2237640e-02 0.0000000e+00 -6.5801767e-02 
1.0567212e-01 0.0000000e+00 -2.7911191e-02 
1.0567212e-01 0.0000000e+00 -2.7911191e-02 
8.3559324e-02 0.0000000e+00 -6.8972368e-02 
8.3559324e-02 0.0000000e+00 -6.8972368e-02 
1.0871507e-01 0.0000000e+00 -2.8426089e-02 
1.0871507e-01 0.0000000e+00 -2.8426089e-02 
8.4702494e-02 0.0000000e+00 -7.2249999e-02 
8.4702494e-02 0.0000000e+00 -7.2249999e-02 
1.1172533e-01 0.0000000e+00 -2.8927700e-02 
1.1172533e-01 0.0000000e+00 -2.8927700e-02 
8.5653069e-02 0.0000000e+00 -7.5637278e-02 
8.5653069e-02 0.0000000e+00 -7.5637278e-02 
1.1470697e-01 0.0000000e+00 -2.9412123e-02 
1.1470697e-01 0.0000000e+00 -2.9412123e-02 
8.6396207e-02 0.0000000e+00 -7.9135770e-02 
8.6396207e-02 0.0000000e+00 -7.9135770e-02 
1.1766315e-01 0.0000000e+00 -2.9878510e-02 
1.1766315e-01 0.0000000e+00 -2.9878510e-02 
8.6917056e-02 0.0000000e+00 -8.2744816e-02 
8.6917056e-02 0.0000000e+00 -8.2744816e-02 
1.2059487e-01 0.0000000e+00 -3.0324269e-02 
1.2059487e-01 0.0000000e+00 -3.0324269e-02 
8.7206568e-02 0.0000000e+00 -8.6457357e-02 
1.2350204e-01 0.0000000e+00 -3.0735602e-02 
8.7206568e-02 0.0000000e+00 -8.6457357e-02 
1.2350204e-01 0.0000000e+00 -3.0735602e-02 
1.2638593e-01 0.0000000e+00 -3.1098800e-02 
8.7256438e-02 0.0000000e+00 -9.0264354e-02 
1.2638593e-01 0.0000000e+00 -3.1098800e-02 
8.7256438e-02 0.0000000e+00 -9.0264354e-02 
1.2924773e-01 0.0000000e+00 -3.1407462e-02 
8.7060284e-02 0.0000000e+00 -9.4156284e-02 
1.2924773e-01 0.0000000e+00 -3.1407462e-02 
8.7060284e-02 0.0000000e+00 -9.4156284e-02 
1.3208628e-01 0.0000000e+00 -3.1646155e-02 
1.3208628e-01 0.0000000e+00 -3.1646155e-02 
8.6615774e-02 0.0000000e+00 -9.8121234e-02 
8.6615774e-02 0.0000000e+00 -9.8121234e-02 
1.3490201e-01 0.0000000e+00 -3.1782857e-02 
1.3490201e-01 0.0000000e+00 -3.1782857e-02 
8.5919629e-02 0.0000000e+00 -1.0214528e-01 
8.5919629e-02 0.0000000e+00 -1.0214528e-01 
1.3769538e-01 0.0000000e+00 -3.1787704e-02 
1.3769538e-01 0.0000000e+00 -3.1787704e-02 
8.4973006e-02 0.0000000e+00 -1.0621297e-01 
8.4973006e-02 0.0000000e+00 -1.0621297e-01 
1.4046285e-01 0.0000000e+00 -3.1640002e-02 
1.4046285e-01 0.0000000e+00 -3.1640002e-02 
8.3782288e-02 0.0000000e+00 -1.1030948e-01 
8.3782288e-02 0.0000000e+00 -1.1030948e-01 
1.4320059e-01 0.0000000e+00 -3.1327423e-02 
1.4320059e-01 0.0000000e+00 -3.1327423e-02 
8.2351891e-02 0.0000000e+00 -1.1442037e-01 
8.2351891e-02 0.0000000e+00 -1.1442037e-01 
1.4591588e-01 0.0000000e+00 -3.0904395e-02 
1.4591588e-01 0.0000000e+00 -3.0904395e-02 
8.0681404e-02 0.0000000e+00 -1.1852964e-01 
8.0681404e-02 0.0000000e+00 -1.1852964e-01 
1.4861822e-01 0.0000000e+00 -3.0428449e-02 
1.4861822e-01 0.0000000e+00 -3.0428449e-02 
7.8763451e-02 0.0000000e+00 -1.2262063e-01 
7.8763451e-02 0.0000000e+00 -1.2262063e-01 
1.5130727e-01 0.0000000e+00 -2.9901309e-02 
1.5130727e-01 0.0000000e+00 -2.9901309e-02 
7.6592063e-02 0.0000000e+00 -1.2667816e-01 
1.5398349e-01 0.0000000e+00 -2.9326446e-02 
7.6592063e-02 0.0000000e+00 -1.2667816e-01 
1.5398349e-01 0.0000000e+00 -2.9326446e-02 
7.4161573e-02 0.0000000e+00 -1.3068670e-01 
1.5664913e-01 0.0000000e+00 -2.8715157e-02 
7.4161573e-02 0.0000000e+00 -1.3068670e-01 
1.5664913e-01 0.0000000e+00 -2.8715157e-02 
1.5930576e-01 0.0000000e+00 -2.8075107e-02 
7.1461560e-02 0.0000000e+00 -1.3462740e-01 
1.5930576e-01 0.0000000e+00 -2.8075107e-02 
7.1461560e-02 0.0000000e+00 -1.3462740e-01 
1.6195425e-01 0.0000000e+00 -2.7408773e-02 
1.6195425e-01 0.0000000e+00 -2.7408773e-02 
6.8486101e-02 0.0000000e+00 -1.3848165e-01 
6.8486101e-02 0.0000000e+00 -1.3848165e-01 
1.6459611e-01 0.0000000e+00 -2.6720446e-02 
1.6459611e-01 0.0000000e+00 -2.6720446e-02 
6.5228761e-02 0.0000000e+00 -1.4223160e-01 
6.5228761e-02 0.0000000e+00 -1.4223160e-01 
1.6723177e-01 0.0000000e+00 -2.6010160e-02 
1.6723177e-01 0.0000000e+00 -2.6010160e-02 
6.1675428e-02 0.0000000e+00 -1.4585369e-01 
6.1675428e-02 0.0000000e+00 -1.4585369e-01 
1.6986081e-01 0.0000000e+00 -2.5275167e-02 
1.6986081e-01 0.0000000e+00 -2.5275167e-02 
5.7804879e-02 0.0000000e+00 -1.4931337e-01 
5.7804879e-02 0.0000000e+00 -1.4931337e-01 
1.7248322e-01 0.0000000e+00 -2.4514532e-02 
1.7248322e-01 0.0000000e+00 -2.4514532e-02 
5.3607284e-02 0.0000000e+00 -1.5257409e-01 
5.3607284e-02 0.0000000e+00 -1.5257409e-01 
1.7509900e-01 0.0000000e+00 -2.3727595e-02 
1.7509900e-01 0.0000000e+00 -2.3727595e-02 
4.9099321e-02 0.0000000e+00 -1.5561227e-01 
4.9099321e-02 0.0000000e+00 -1.5561227e-01 
1.7770875e-01 0.0000000e+00 -2.2914851e-02 
1.7770875e-01 0.0000000e+00 -2.2914851e-02 
4.4306836e-02 0.0000000e+00 -1.5841034e-01 
4.4306836e-02 0.0000000e+00 -1.5841034e-01 
1.8031337e-01 0.0000000e+00 -2.2078517e-02 
1.8031337e-01 0.0000000e+00 -2.2078517e-02 
3.9254314e-02 0.0000000e+00 -1.6094812e-01 
3.9254314e-02 0.0000000e+00 -1.6094812e-01 
1.8291276e-01 0.0000000e+00 -2.1217131e-02 
1.8291276e-01 0.0000000e+00 -2.1217131e-02 
3.3967473e-02 0.0000000e+00 -1.6320696e-01 
3.3967473e-02 0.0000000e+00 -1.6320696e-01 
1.8550705e-01 0.0000000e+00 -2.0330643e-02 
1.8550705e-01 0.0000000e+00 -2.0330643e-02 
2.8480186e-02 0.0000000e+00 -1.6518348e-01 
2.8480186e-02 0.0000000e+00 -1.6518348e-01 
1.8809737e-01 0.0000000e+00 -1.9424102e-02 
1.8809737e-01 0.0000000e+00 -1.9424102e-02 
2.2830377e-02 0.0000000e+00 -1.6688910e-01 
2.2830377e-02 0.0000000e+00 -1.6688910e-01 
1.9068437e-01 0.0000000e+00 -1.8500297e-02 
1.9068437e-01 0.0000000e+00 -1.8500297e-02 
1.7051062e-02 0.0000000e+00 -1.6833623e-01 
1.9326869e-01 0.0000000e+00 -1.7562143e-02 
1.7051062e-02 0.0000000e+00 -1.6833623e-01 
1.9326869e-01 0.0000000e+00 -1.7562143e-02 
1.9585093e-01 0.0000000e+00 -1.6612218e-02 
1.1163994e-02 0.0000000e+00 -1.6952205e-01 
1.9585093e-01 0.0000000e+00 -1.6612218e-02 
1.1163994e-02 0.0000000e+00 -1.6952205e-01 
1.9843111e-01 0.0000000e+00 -1.5649507e-02 
5.1859037e-03 0.0000000e+00 -1.7043596e-01 
1.9843111e-01 0.0000000e+00 -1.5649507e-02 
5.1859037e-03 0.0000000e+00 -1.7043596e-01 
2.0100944e-01 0.0000000e+00 -1.4674203e-02 
2.0100944e-01 0.0000000e+00 -1.4674203e-02 
-8.6198513e-04 0.0000000e+00 -1.7108282e-01 
-8.6198513e-04 0.0000000e+00 -1.7108282e-01 
2.0358655e-01 0.0000000e+00 -1.3689919e-02 
2.0358655e-01 0.0000000e+00 -1.3689919e-02 
-6.9568288e-03 0.0000000e+00 -1.7147413e-01 
-6.9568288e-03 0.0000000e+00 -1.7147413e-01 
2.0616289e-01 0.0000000e+00 -1.2699572e-02 
2.0616289e-01 0.0000000e+00 -1.2699572e-02 
-1.3080088e-02 0.0000000e+00 -1.7160601e-01 
-1.3080088e-02 0.0000000e+00 -1.7160601e-01 
2.0873870e-01 0.0000000e+00 -1.1704174e-02 
2.0873870e-01 0.0000000e+00 -1.1704174e-02 
-1.9215467e-02 0.0000000e+00 -1.7146256e-01 
-1.9215467e-02 0.0000000e+00 -1.7146256e-01 
2.1131413e-01 0.0000000e+00 -1.0704314e-02 
2.1131413e-01 0.0000000e+00 -1.0704314e-02 
-2.5344336e-02 0.0000000e+00 -1.7103595e-01 
-2.5344336e-02 0.0000000e+00 -1.7103595e-01 
2.1388937e-01 0.0000000e+00 -9.7019271e-03 
2.1388937e-01 0.0000000e+00 -9.7019271e-03 
-3.1446731e-02 0.0000000e+00 -1.7034780e-01 
-3.1446731e-02 0.0000000e+00 -1.7034780e-01 
2.1646462e-01 0.0000000e+00 -8.6999610e-03 
2.1646462e-01 0.0000000e+00 -8.6999610e-03 
-3.7504927e-02 0.0000000e+00 -1.6941576e-01 
-3.7504927e-02 0.0000000e+00 -1.6941576e-01 
2.1903993e-01 0.0000000e+00 -7.6991406e-03 
2.1903993e-01 0.0000000e+00 -7.6991406e-03 
-4.3501954e-02 0.0000000e+00 -1.6823683e-01 
-4.3501954e-02 0.0000000e+00 -1.6823683e-01 
2.2161525e-01 0.0000000e+00 -6.7002702e-03 
2.2161525e-01 0.0000000e+00 -6.7002702e-03 
-4.9419430e-02 0.0000000e+00 -1.6680785e-01 
-4.9419430e-02 0.0000000e+00 -1.6680785e-01 
2.2419055e-01 0.0000000e+00 -5.7061009e-03 
2.2419055e-01 0.0000000e+00 -5.7061009e-03 
-5.5231189e-02 0.0000000e+00 -1.6512479e-01 
-5.5231189e-02 0.0000000e+00 -1.6512479e-01 
2.2676574e-01 0.0000000e+00 -4.7178575e-03 
2.2676574e-01 0.0000000e+00 -4.7178575e-03 
-6.0911835e-02 0.0000000e+00 -1.6319126e-01 
-6.0911835e-02 0.0000000e+00 -1.6319126e-01 
2.2934059e-01 0.0000000e+00 -3.7351307e-03 
2.2934059e-01 0.0000000e+00 -3.7351307e-03 
-6.6444553e-02 0.0000000e+00 -1.6101894e-01 
-6.6444553e-02 0.0000000e+00 -1.6101894e-01 
2.3191468e-01 0.0000000e+00 -2.7599651e-03 
2.3191468e-01 0.0000000e+00 -2.7599651e-03 
-7.1810322e-02 0.0000000e+00 -1.5861662e-01 
-7.1810322e-02 0.0000000e+00 -1.5861662e-01 
2.3447473e-01 0.0000000e+00 -1.8015222e-03 
2.3447473e-01 0.0000000e+00 -1.8015222e-03 
-7.6985357e-02 0.0000000e+00 -1.5597435e-01 
-7.6985357e-02 0.0000000e+00 -1.5597435e-01 
2.3754403e-01 0.0000000e+00 -6.6934043e-04 
2.3754403e-01 0.0000000e+00 -6.6934043e-04 
-8.2865303e-02 0.0000000e+00 -1.5250191e-01 
-8.2865303e-02 0.0000000e+00 -1.5250191e-01 
2.4122211e-01 0.0000000e+00 6.6665685e-04 
2.4122211e-01 0.0000000e+00 6.6665685e-04 
-8.9383231e-02 0.0000000e+00 -1.4793625e-01 
-8.9383231e-02 0.0000000e+00 -1.4793625e-01 
2.4562406e-01 0.0000000e+00 2.2329913e-03 
2.4562406e-01 0.0000000e+00 2.2329913e-03 
-9.6245377e-02 0.0000000e+00 -1.4203574e-01 
-9.6245377e-02 0.0000000e+00 -1.4203574e-01 
2.5024039e-01 0.0000000e+00 3.8263532e-03 
2.5024039e-01 0.0000000e+00 3.8263532e-03 
-1.0208038e-01 0.0000000e+00 -1.3576787e-01 
-1.0208038e-01 0.0000000e+00 -1.3576787e-01 
2.5482609e-01 0.0000000e+00 5.3610127e-03 
2.5482609e-01 0.0000000e+00 5.3610127e-03 
-1.0690153e-01 0.0000000e+00 -1.2929291e-01 
-1.0690153e-01 0.0000000e+00 -1.2929291e-01 
2.5937484e-01 0.0000000e+00 6.8453117e-03 
2.5937484e-01 0.0000000e+00 6.8453117e-03 
-1.1066445e-01 0.0000000e+00 -1.2276595e-01 
-1.1066445e-01 0.0000000e+00 -1.2276595e-01 
2.6387549e-01 0.0000000e+00 8.2863636e-03 
2.6387549e-01 0.0000000e+00 8.2863636e-03 
-1.1331492e-01 0.0000000e+00 -1.1635186e-01 
-1.1331492e-01 0.0000000e+00 -1.1635186e-01 
2.6831333e-01 0.0000000e+00 9.6924954e-03 
2.6831333e-01 0.0000000e+00 9.6924954e-03 
-1.1493916e-01 0.0000000e+00 -1.1017888e-01 
-1.1493916e-01 0.0000000e+00 -1.1017888e-01 
2.7267715e-01 0.0000000e+00 1.1078095e-02 
2.7267715e-01 0.0000000e+00 1.1078095e-02 
-1.1566807e-01 0.0000000e+00 -1.0433935e-01 
-1.1566807e-01 0.0000000e+00 -1.0433935e-01 
2.7695534e-01 0.0000000e+00 1.2461289e-02 