# vtk DataFile Version 4.0
vtk output
ASCII
DATASET UNSTRUCTURED_GRID
POINTS 824 float
-6.4148600e-05 1.0000000e-02 -4.4525366e-03 
-1.0680180e-04 1.0000000e-02 -2.8088474e-03 
3.4513260e-04 1.0000000e-02 -6.0450544e-03 
1.3803532e-03 1.0000000e-02 -7.3230534e-03 
6.5829700e-05 1.0000000e-02 -1.1736922e-03 
2.7142144e-03 1.0000000e-02 -8.2851896e-03 
5.0392030e-04 1.0000000e-02 6.5784910e-04 
4.1780764e-03 1.0000000e-02 -9.0342357e-03 
1.1628646e-03 1.0000000e-02 2.4220088e-03 
5.7070961e-03 1.0000000e-02 -9.6390187e-03 
2.0046218e-03 1.0000000e-02 4.1066196e-03 
7.2731595e-03 1.0000000e-02 -1.0140047e-02 
-6.4148600e-05 0.0000000e+00 -4.4525366e-03 
-1.0680180e-04 0.0000000e+00 -2.8088474e-03 
3.4513260e-04 0.0000000e+00 -6.0450544e-03 
1.3803532e-03 0.0000000e+00 -7.3230534e-03 
6.5829700e-05 0.0000000e+00 -1.1736922e-03 
2.9952540e-03 1.0000000e-02 5.7082181e-03 
8.8622628e-03 1.0000000e-02 -1.0562311e-02 
2.7142144e-03 0.0000000e+00 -8.2851896e-03 
5.0392030e-04 0.0000000e+00 6.5784910e-04 
4.1780764e-03 0.0000000e+00 -9.0342357e-03 
1.1628646e-03 0.0000000e+00 2.4220088e-03 
1.0466628e-02 1.0000000e-02 -1.0922252e-02 
4.1067238e-03 1.0000000e-02 7.2284501e-03 
5.7070961e-03 0.0000000e+00 -9.6390187e-03 
2.0046218e-03 0.0000000e+00 4.1066196e-03 
7.2731595e-03 0.0000000e+00 -1.0140047e-02 
1.2081579e-02 1.0000000e-02 -1.1231240e-02 
5.3166988e-03 1.0000000e-02 8.6715129e-03 
2.9952540e-03 0.0000000e+00 5.7082181e-03 
8.8622628e-03 0.0000000e+00 -1.0562311e-02 
1.3704120e-02 1.0000000e-02 -1.1497501e-02 
1.0466628e-02 0.0000000e+00 -1.0922252e-02 
4.1067238e-03 0.0000000e+00 7.2284501e-03 
6.6076374e-03 1.0000000e-02 1.0042624e-02 
1.5332244e-02 1.0000000e-02 -1.1727173e-02 
1.2081579e-02 0.0000000e+00 -1.1231240e-02 
5.3166988e-03 0.0000000e+00 8.6715129e-03 
7.9658343e-03 1.0000000e-02 1.1347144e-02 
1.3704120e-02 0.0000000e+00 -1.1497501e-02 
1.6964543e-02 1.0000000e-02 -1.1925002e-02 
6.6076374e-03 0.0000000e+00 1.0042624e-02 
9.3804686e-03 1.0000000e-02 1.2590236e-02 
1.5332244e-02 0.0000000e+00 -1.1727173e-02 
1.8600004e-02 1.0000000e-02 -1.2094716e-02 
7.9658343e-03 0.0000000e+00 1.1347144e-02 
1.6964543e-02 0.0000000e+00 -1.1925002e-02 
1.0843002e-02 1.0000000e-02 1.3776601e-02 
2.0237876e-02 1.0000000e-02 -1.2239318e-02 
9.3804686e-03 0.0000000e+00 1.2590236e-02 
1.8600004e-02 0.0000000e+00 -1.2094716e-02 
1.2346566e-02 1.0000000e-02 1.4910517e-02 
2.1877591e-02 1.0000000e-02 -1.2361246e-02 
1.0843002e-02 0.0000000e+00 1.3776601e-02 
2.0237876e-02 0.0000000e+00 -1.2239318e-02 
1.3885623e-02 1.0000000e-02 1.5995768e-02 
2.3518711e-02 1.0000000e-02 -1.2462540e-02 
1.2346566e-02 0.0000000e+00 1.4910517e-02 
2.1877591e-02 0.0000000e+00 -1.2361246e-02 
2.5160890e-02 1.0000000e-02 -1.2544903e-02 
1.5455654e-02 1.0000000e-02 1.7035707e-02 
1.3885623e-02 0.0000000e+00 1.5995768e-02 
2.3518711e-02 0.0000000e+00 -1.2462540e-02 
2.6803852e-02 1.0000000e-02 -1.2609772e-02 
1.7052912e-02 1.0000000e-02 1.8033321e-02 
2.5160890e-02 0.0000000e+00 -1.2544903e-02 
1.5455654e-02 0.0000000e+00 1.7035707e-02 
2.8447376e-02 1.0000000e-02 -1.2658389e-02 
2.6803852e-02 0.0000000e+00 -1.2609772e-02 
1.7052912e-02 0.0000000e+00 1.8033321e-02 
1.8674284e-02 1.0000000e-02 1.8991246e-02 
3.0091279e-02 1.0000000e-02 -1.2691814e-02 
2.8447376e-02 0.0000000e+00 -1.2658389e-02 
1.8674284e-02 0.0000000e+00 1.8991246e-02 
2.0317149e-02 1.0000000e-02 1.9911822e-02 
3.0091279e-02 0.0000000e+00 -1.2691814e-02 
3.1735410e-02 1.0000000e-02 -1.2710971e-02 
2.0317149e-02 0.0000000e+00 1.9911822e-02 
2.1979295e-02 1.0000000e-02 2.0797113e-02 
3.1735410e-02 0.0000000e+00 -1.2710971e-02 
3.3379643e-02 1.0000000e-02 -1.2716676e-02 
2.1979295e-02 0.0000000e+00 2.0797113e-02 
2.3658832e-02 1.0000000e-02 2.1648949e-02 
3.3379643e-02 0.0000000e+00 -1.2716676e-02 
3.5023871e-02 1.0000000e-02 -1.2709629e-02 
2.3658832e-02 0.0000000e+00 2.1648949e-02 
2.5354100e-02 1.0000000e-02 2.2469029e-02 
3.5023871e-02 0.0000000e+00 -1.2709629e-02 
3.6668001e-02 1.0000000e-02 -1.2690457e-02 
2.5354100e-02 0.0000000e+00 2.2469029e-02 
2.7063712e-02 1.0000000e-02 2.3258772e-02 
3.6668001e-02 0.0000000e+00 -1.2690457e-02 
3.8312016e-02 1.0000000e-02 -1.2663038e-02 
2.7063712e-02 0.0000000e+00 2.3258772e-02 
3.8312016e-02 0.0000000e+00 -1.2663038e-02 
2.8786417e-02 1.0000000e-02 2.4019532e-02 
3.9956032e-02 1.0000000e-02 -1.2635752e-02 
2.8786417e-02 0.0000000e+00 2.4019532e-02 
3.9956032e-02 0.0000000e+00 -1.2635752e-02 
3.0521135e-02 1.0000000e-02 2.4752486e-02 
4.1600048e-02 1.0000000e-02 -1.2608467e-02 
3.0521135e-02 0.0000000e+00 2.4752486e-02 
4.1600048e-02 0.0000000e+00 -1.2608467e-02 
3.2266919e-02 1.0000000e-02 2.5458676e-02 
4.3299814e-02 1.0000000e-02 -1.2580255e-02 
3.2266919e-02 0.0000000e+00 2.5458676e-02 
4.3299814e-02 0.0000000e+00 -1.2580255e-02 
3.4022902e-02 1.0000000e-02 2.6139111e-02 
4.5339533e-02 1.0000000e-02 -1.2546402e-02 
3.4022902e-02 0.0000000e+00 2.6139111e-02 
4.5339533e-02 0.0000000e+00 -1.2546402e-02 
3.5788340e-02 1.0000000e-02 2.6794623e-02 
4.7787196e-02 1.0000000e-02 -1.2505778e-02 
3.5788340e-02 0.0000000e+00 2.6794623e-02 
3.7562554e-02 1.0000000e-02 2.7425996e-02 
4.7787196e-02 0.0000000e+00 -1.2505778e-02 
3.7562554e-02 0.0000000e+00 2.7425996e-02 
3.9344928e-02 1.0000000e-02 2.8033950e-02 
5.0379113e-02 1.0000000e-02 -1.2462760e-02 
3.9344928e-02 0.0000000e+00 2.8033950e-02 
5.0379113e-02 0.0000000e+00 -1.2462760e-02 
4.1134916e-02 1.0000000e-02 2.8619109e-02 
5.2971029e-02 1.0000000e-02 -1.2419741e-02 
4.1134916e-02 0.0000000e+00 2.8619109e-02 
5.2971029e-02 0.0000000e+00 -1.2419741e-02 
4.2932026e-02 1.0000000e-02 2.9182016e-02 
4.2932026e-02 0.0000000e+00 2.9182016e-02 
5.5562946e-02 1.0000000e-02 -1.2376723e-02 
4.5339682e-02 1.0000000e-02 2.9899231e-02 
5.5562946e-02 0.0000000e+00 -1.2376723e-02 
4.5339682e-02 0.0000000e+00 2.9899231e-02 
5.8154863e-02 1.0000000e-02 -1.2333705e-02 
4.7758221e-02 1.0000000e-02 3.0578844e-02 
5.8154863e-02 0.0000000e+00 -1.2333705e-02 
4.7758221e-02 0.0000000e+00 3.0578844e-02 
6.0746779e-02 1.0000000e-02 -1.2290686e-02 
5.0186760e-02 1.0000000e-02 3.1221807e-02 
6.0746779e-02 0.0000000e+00 -1.2290686e-02 
5.0186760e-02 0.0000000e+00 3.1221807e-02 
6.3338696e-02 1.0000000e-02 -1.2247668e-02 
5.2624513e-02 1.0000000e-02 3.1828903e-02 
6.3338696e-02 0.0000000e+00 -1.2247668e-02 
5.2624513e-02 0.0000000e+00 3.1828903e-02 
5.5070762e-02 1.0000000e-02 3.2400804e-02 
6.5930613e-02 1.0000000e-02 -1.2204650e-02 
5.5070762e-02 0.0000000e+00 3.2400804e-02 
6.5930613e-02 0.0000000e+00 -1.2204650e-02 
5.7524847e-02 1.0000000e-02 3.2938082e-02 
6.8522529e-02 1.0000000e-02 -1.2161631e-02 
5.7524847e-02 0.0000000e+00 3.2938082e-02 
6.8522529e-02 0.0000000e+00 -1.2161631e-02 
5.9986169e-02 1.0000000e-02 3.3441170e-02 
7.1114446e-02 1.0000000e-02 -1.2118613e-02 
5.9986169e-02 0.0000000e+00 3.3441170e-02 
7.1114446e-02 0.0000000e+00 -1.2118613e-02 
6.2454163e-02 1.0000000e-02 3.3910436e-02 
6.2454163e-02 0.0000000e+00 3.3910436e-02 
7.3706362e-02 1.0000000e-02 -1.2075595e-02 
7.3706362e-02 0.0000000e+00 -1.2075595e-02 
6.4928303e-02 1.0000000e-02 3.4346139e-02 
6.4928303e-02 0.0000000e+00 3.4346139e-02 
7.6298279e-02 1.0000000e-02 -1.2032577e-02 
7.6298279e-02 0.0000000e+00 -1.2032577e-02 
6.7408092e-02 1.0000000e-02 3.4748446e-02 
6.7408092e-02 0.0000000e+00 3.4748446e-02 
7.8890196e-02 1.0000000e-02 -1.1989558e-02 
7.8890196e-02 0.0000000e+00 -1.1989558e-02 
6.9893057e-02 1.0000000e-02 3.5117436e-02 
6.9893057e-02 0.0000000e+00 3.5117436e-02 
8.1482112e-02 1.0000000e-02 -1.1946540e-02 
8.1482112e-02 0.0000000e+00 -1.1946540e-02 
7.2382742e-02 1.0000000e-02 3.5453098e-02 
7.2382742e-02 0.0000000e+00 3.5453098e-02 
8.4074029e-02 1.0000000e-02 -1.1903522e-02 
7.4876707e-02 1.0000000e-02 3.5755332e-02 
8.4074029e-02 0.0000000e+00 -1.1903522e-02 
7.4876707e-02 0.0000000e+00 3.5755332e-02 
8.6665946e-02 1.0000000e-02 -1.1860503e-02 
7.7374516e-02 1.0000000e-02 3.6023948e-02 
8.6665946e-02 0.0000000e+00 -1.1860503e-02 
7.7374516e-02 0.0000000e+00 3.6023948e-02 
8.9257862e-02 1.0000000e-02 -1.1817485e-02 
7.9875738e-02 1.0000000e-02 3.6258665e-02 
8.9257862e-02 0.0000000e+00 -1.1817485e-02 
7.9875738e-02 0.0000000e+00 3.6258665e-02 
8.2379940e-02 1.0000000e-02 3.6459105e-02 
9.1849779e-02 1.0000000e-02 -1.1774467e-02 
8.2379940e-02 0.0000000e+00 3.6459105e-02 
9.1849779e-02 0.0000000e+00 -1.1774467e-02 
8.4886681e-02 1.0000000e-02 3.6624786e-02 
9.4441696e-02 1.0000000e-02 -1.1731448e-02 
8.4886681e-02 0.0000000e+00 3.6624786e-02 
9.4441696e-02 0.0000000e+00 -1.1731448e-02 
8.7395510e-02 1.0000000e-02 3.6755108e-02 
8.7395510e-02 0.0000000e+00 3.6755108e-02 
9.7033612e-02 1.0000000e-02 -1.1688430e-02 
9.7033612e-02 0.0000000e+00 -1.1688430e-02 
8.9905951e-02 1.0000000e-02 3.6849401e-02 
8.9905951e-02 0.0000000e+00 3.6849401e-02 
9.9625529e-02 1.0000000e-02 -1.1645412e-02 
9.9625529e-02 0.0000000e+00 -1.1645412e-02 
9.2417505e-02 1.0000000e-02 3.6906832e-02 
9.2417505e-02 0.0000000e+00 3.6906832e-02 
1.0221745e-01 1.0000000e-02 -1.1602393e-02 
1.0221745e-01 0.0000000e+00 -1.1602393e-02 
9.4929640e-02 1.0000000e-02 3.6926425e-02 
9.4929640e-02 0.0000000e+00 3.6926425e-02 
1.0480936e-01 1.0000000e-02 -1.1559375e-02 
1.0480936e-01 0.0000000e+00 -1.1559375e-02 
9.7441776e-02 1.0000000e-02 3.6907077e-02 
9.7441776e-02 0.0000000e+00 3.6907077e-02 
1.0740128e-01 1.0000000e-02 -1.1516357e-02 
1.0740128e-01 0.0000000e+00 -1.1516357e-02 
9.9953281e-02 1.0000000e-02 3.6847529e-02 
9.9953281e-02 0.0000000e+00 3.6847529e-02 
1.0999320e-01 1.0000000e-02 -1.1473339e-02 
1.0246345e-01 1.0000000e-02 3.6746314e-02 
1.0999320e-01 0.0000000e+00 -1.1473339e-02 
1.0246345e-01 0.0000000e+00 3.6746314e-02 
1.0497150e-01 1.0000000e-02 3.6601738e-02 
1.1258511e-01 1.0000000e-02 -1.1430320e-02 
1.0497150e-01 0.0000000e+00 3.6601738e-02 
1.1258511e-01 0.0000000e+00 -1.1430320e-02 
1.0747666e-01 1.0000000e-02 3.6413638e-02 
1.1517703e-01 1.0000000e-02 -1.1387302e-02 
1.0747666e-01 0.0000000e+00 3.6413638e-02 
[...]
POINT_DATA 824
FIELD FieldData 2
DISPLACEMENT 3 824  float
0.0000000e+00 0.0000000e+00 0.0000000e+00 
0.0000000e+00 0.0000000e+00 0.0000000e+00 
0.0000000e+00 0.0000000e+00 0.0000000e+00 
0.0000000e+00 0.0000000e+00 0.0000000e+00 
0.0000000e+00 0.0000000e+00 0.0000000e+00 
0.0000000e+00 0.0000000e+00 0.0000000e+00 
0.0000000e+00 0.0000000e+00 0.0000000e+00 
0.0000000e+00 0.0000000e+00 0.0000000e+00 
0.0000000e+00 0.0000000e+00 0.0000000e+00 
0.0000000e+00 0.0000000e+00 0.0000000e+00 
0.0000000e+00 0.0000000e+00 0.0000000e+00 
0.0000000e+00 0.0000000e+00 0.0000000e+00 
0.0000000e+00 0.0000000e+00 0.0000000e+00 
0.0000000e+00 0.0000000e+00 0.0000000e+00 
0.0000000e+00 0.0000000e+00 0.0000000e+00 
0.0000000e+00 0.0000000e+00 0.0000000e+00 
0.0000000e+00 0.0000000e+00 0.0000000e+00 
0.0000000e+00 0.0000000e+00 0.0000000e+00 
0.0000000e+00 0.0000000e+00 0.0000000e+00 
0.0000000e+00 0.0000000e+00 0.0000000e+00 
0.0000000e+00 0.0000000e+00 0.0000000e+00 
0.0000000e+00 0.0000000e+00 0.0000000e+00 
0.0000000e+00 0.0000000e+00 0.0000000e+00 
0.0000000e+00 0.0000000e+00 0.0000000e+00 
0.0000000e+00 0.0000000e+00 0.0000000e+00 
0.0000000e+00 0.0000000e+00 0.0000000e+00 
0.0000000e+00 0.0000000e+00 0.0000000e+00 
0.0000000e+00 0.0000000e+00 0.0000000e+00 
0.0000000e+00 0.0000000e+00 0.0000000e+00 
0.0000000e+00 0.0000000e+00 0.0000000e+00 
0.0000000e+00 0.0000000e+00 0.0000000e+00 
0.0000000e+00 0.0000000e+00 0.0000000e+00 
0.0000000e+00 0.0000000e+00 0.0000000e+00 
0.0000000e+00 0.0000000e+00 0.0000000e+00 
0.0000000e+00 0.0000000e+00 0.0000000e+00 
0.0000000e+00 0.0000000e+00 0.0000000e+00 
0.0000000e+00 0.0000000e+00 0.0000000e+00 
0.0000000e+00 0.0000000e+00 0.0000000e+00 
0.0000000e+00 0.0000000e+00 0.0000000e+00 
0.0000000e+00 0.0000000e+00 0.0000000e+00 
0.0000000e+00 0.0000000e+00 0.0000000e+00 
0.0000000e+00 0.0000000e+00 0.0000000e+00 
0.0000000e+00 0.0000000e+00 0.0000000e+00 
0.0000000e+00 0.0000000e+00 0.0000000e+00 
0.0000000e+00 0.0000000e+00 0.0000000e+00 
0.0000000e+00 0.0000000e+00 0.0000000e+00 
0.0000000e+00 0.0000000e+00 0.0000000e+00 
0.0000000e+00 0.0000000e+00 0.0000000e+00 
0.0000000e+00 0.0000000e+00 0.0000000e+00 
0.0000000e+00 0.0000000e+00 0.0000000e+00 
0.0000000e+00 0.0000000e+00 0.0000000e+00 
0.0000000e+00 0.0000000e+00 0.0000000e+00 
0.0000000e+00 0.0000000e+00 0.0000000e+00 
0.0000000e+00 0.0000000e+00 0.0000000e+00 
0.0000000e+00 0.0000000e+00 0.0000000e+00 
0.0000000e+00 0.0000000e+00 0.0000000e+00 
0.0000000e+00 0.0000000e+00 0.0000000e+00 
0.0000000e+00 0.0000000e+00 0.0000000e+00 
0.0000000e+00 0.0000000e+00 0.0000000e+00 
0.0000000e+00 0.0000000e+00 0.0000000e+00 
0.0000000e+00 0.0000000e+00 0.0000000e+00 
0.0000000e+00 0.0000000e+00 0.0000000e+00 
0.0000000e+00 0.0000000e+00 0.0000000e+00 
0.0000000e+00 0.0000000e+00 0.0000000e+00 
0.0000000e+00 0.0000000e+00 0.0000000e+00 
0.0000000e+00 0.0000000e+00 0.0000000e+00 
0.0000000e+00 0.0000000e+00 0.0000000e+00 
0.0000000e+00 0.0000000e+00 0.0000000e+00 
0.0000000e+00 0.0000000e+00 0.0000000e+00 
0.0000000e+00 0.0000000e+00 0.0000000e+00 
0.0000000e+00 0.0000000e+00 0.0000000e+00 
0.0000000e+00 0.0000000e+00 0.0000000e+00 
0.0000000e+00 0.0000000e+00 0.0000000e+00 
0.0000000e+00 0.0000000e+00 0.0000000e+00 
0.0000000e+00 0.0000000e+00 0.0000000e+00 
0.0000000e+00 0.0000000e+00 0.0000000e+00 
0.0000000e+00 0.0000000e+00 0.0000000e+00 
0.0000000e+00 0.0000000e+00 0.0000000e+00 
0.0000000e+00 0.0000000e+00 0.0000000e+00 
0.0000000e+00 0.0000000e+00 0.0000000e+00 
0.0000000e+00 0.0000000e+00 0.0000000e+00 
0.0000000e+00 0.0000000e+00 0.0000000e+00 
0.0000000e+00 0.0000000e+00 0.0000000e+00 
0.0000000e+00 0.0000000e+00 0.0000000e+00 
0.0000000e+00 0.0000000e+00 0.0000000e+00 
0.0000000e+00 0.0000000e+00 0.0000000e+00 
0.0000000e+00 0.0000000e+00 0.0000000e+00 
0.0000000e+00 0.0000000e+00 0.0000000e+00 
0.0000000e+00 0.0000000e+00 0.0000000e+00 
0.0000000e+00 0.0000000e+00 0.0000000e+00 
0.0000000e+00 0.0000000e+00 0.0000000e+00 
0.0000000e+00 0.0000000e+00 0.0000000e+00 
0.0000000e+00 0.0000000e+00 0.0000000e+00 
0.0000000e+00 0.0000000e+00 0.0000000e+00 
0.0000000e+00 0.0000000e+00 0.0000000e+00 
0.0000000e+00 0.0000000e+00 0.0000000e+00 
0.0000000e+00 0.0000000e+00 0.0000000e+00 
-3.4944584e-05 0.0000000e+00 3.8267098e-04 
0.0000000e+00 0.0000000e+00 0.0000000e+00 
-3.4944584e-05 0.0000000e+00 3.8267098e-04 
0.0000000e+00 0.0000000e+00 0.0000000e+00 
-6.9631725e-05 0.0000000e+00 7.6431915e-04 
0.0000000e+00 0.0000000e+00 0.0000000e+00 
-6.9631725e-05 0.0000000e+00 7.6431915e-04 
0.0000000e+00 0.0000000e+00 0.0000000e+00 
-1.0519176e-04 0.0000000e+00 1.1577000e-03 
0.0000000e+00 0.0000000e+00 0.0000000e+00 
-1.0519176e-04 0.0000000e+00 1.1577000e-03 
0.0000000e+00 0.0000000e+00 0.0000000e+00 
-1.4741316e-04 0.0000000e+00 1.6279611e-03 
0.0000000e+00 0.0000000e+00 0.0000000e+00 
-1.4741316e-04 0.0000000e+00 1.6279611e-03 
0.0000000e+00 0.0000000e+00 0.0000000e+00 
-1.9737393e-04 0.0000000e+00 2.1894579e-03 
0.0000000e+00 0.0000000e+00 0.0000000e+00 
0.0000000e+00 0.0000000e+00 0.0000000e+00 
-1.9737393e-04 0.0000000e+00 2.1894579e-03 
0.0000000e+00 0.0000000e+00 0.0000000e+00 
0.0000000e+00 0.0000000e+00 0.0000000e+00 
-2.4934530e-04 0.0000000e+00 2.7803040e-03 
0.0000000e+00 0.0000000e+00 0.0000000e+00 
-2.4934530e-04 0.0000000e+00 2.7803040e-03 
0.0000000e+00 0.0000000e+00 0.0000000e+00 
-3.0024806e-04 0.0000000e+00 3.3668439e-03 
0.0000000e+00 0.0000000e+00 0.0000000e+00 
-3.0024806e-04 0.0000000e+00 3.3668439e-03 
0.0000000e+00 0.0000000e+00 0.0000000e+00 
0.0000000e+00 0.0000000e+00 0.0000000e+00 
-3.4998179e-04 0.0000000e+00 3.9486459e-03 
0.0000000e+00 0.0000000e+00 0.0000000e+00 
-3.4998179e-04 0.0000000e+00 3.9486459e-03 
0.0000000e+00 0.0000000e+00 0.0000000e+00 
-3.9844008e-04 0.0000000e+00 4.5252245e-03 
0.0000000e+00 0.0000000e+00 0.0000000e+00 
-3.9844008e-04 0.0000000e+00 4.5252245e-03 
0.0000000e+00 0.0000000e+00 0.0000000e+00 
-4.4556686e-04 0.0000000e+00 5.0962897e-03 
0.0000000e+00 0.0000000e+00 0.0000000e+00 
-4.4556686e-04 0.0000000e+00 5.0962897e-03 
0.0000000e+00 0.0000000e+00 0.0000000e+00 
-4.9136399e-04 0.0000000e+00 5.6618052e-03 
0.0000000e+00 0.0000000e+00 0.0000000e+00 
-4.9136399e-04 0.0000000e+00 5.6618052e-03 
0.0000000e+00 0.0000000e+00 0.0000000e+00 
0.0000000e+00 0.0000000e+00 0.0000000e+00 
-5.3580376e-04 0.0000000e+00 6.2216049e-03 
0.0000000e+00 0.0000000e+00 0.0000000e+00 
-5.3580376e-04 0.0000000e+00 6.2216049e-03 
0.0000000e+00 0.0000000e+00 0.0000000e+00 
-5.7883418e-04 0.0000000e+00 6.7753968e-03 
0.0000000e+00 0.0000000e+00 0.0000000e+00 
-5.7883418e-04 0.0000000e+00 6.7753968e-03 
0.0000000e+00 0.0000000e+00 0.0000000e+00 
-6.2044363e-04 0.0000000e+00 7.3230580e-03 
0.0000000e+00 0.0000000e+00 0.0000000e+00 
-6.2044363e-04 0.0000000e+00 7.3230580e-03 
0.0000000e+00 0.0000000e+00 0.0000000e+00 
0.0000000e+00 0.0000000e+00 0.0000000e+00 
-6.6065339e-04 0.0000000e+00 7.8646211e-03 
-6.6065339e-04 0.0000000e+00 7.8646211e-03 
0.0000000e+00 0.0000000e+00 0.0000000e+00 
0.0000000e+00 0.0000000e+00 0.0000000e+00 
-6.9945402e-04 0.0000000e+00 8.3999858e-03 
-6.9945402e-04 0.0000000e+00 8.3999858e-03 
0.0000000e+00 0.0000000e+00 0.0000000e+00 
0.0000000e+00 0.0000000e+00 0.0000000e+00 
-7.3680319e-04 0.0000000e+00 8.9288793e-03 
-7.3680319e-04 0.0000000e+00 8.9288793e-03 
0.0000000e+00 0.0000000e+00 0.0000000e+00 
0.0000000e+00 0.0000000e+00 0.0000000e+00 
-7.7269495e-04 0.0000000e+00 9.4511874e-03 
-7.7269495e-04 0.0000000e+00 9.4511874e-03 
0.0000000e+00 0.0000000e+00 0.0000000e+00 
0.0000000e+00 0.0000000e+00 0.0000000e+00 
-8.0716051e-04 0.0000000e+00 9.9669830e-03 
0.0000000e+00 0.0000000e+00 0.0000000e+00 
-8.0716051e-04 0.0000000e+00 9.9669830e-03 
0.0000000e+00 0.0000000e+00 0.0000000e+00 
-8.4019668e-04 0.0000000e+00 1.0476182e-02 
0.0000000e+00 0.0000000e+00 0.0000000e+00 
-8.4019668e-04 0.0000000e+00 1.0476182e-02 
0.0000000e+00 0.0000000e+00 0.0000000e+00 
-8.7177638e-04 0.0000000e+00 1.0978560e-02 
0.0000000e+00 0.0000000e+00 0.0000000e+00 
-8.7177638e-04 0.0000000e+00 1.0978560e-02 
0.0000000e+00 0.0000000e+00 0.0000000e+00 
0.0000000e+00 0.0000000e+00 0.0000000e+00 
-9.0191115e-04 0.0000000e+00 1.1474068e-02 
0.0000000e+00 0.0000000e+00 0.0000000e+00 
-9.0191115e-04 0.0000000e+00 1.1474068e-02 
0.0000000e+00 0.0000000e+00 0.0000000e+00 
-9.3064065e-04 0.0000000e+00 1.1962818e-02 
0.0000000e+00 0.0000000e+00 0.0000000e+00 
-9.3064065e-04 0.0000000e+00 1.1962818e-02 
0.0000000e+00 0.0000000e+00 0.0000000e+00 
0.0000000e+00 0.0000000e+00 0.0000000e+00 
-9.5797008e-04 0.0000000e+00 1.2444762e-02 
-9.5797008e-04 0.0000000e+00 1.2444762e-02 
0.0000000e+00 0.0000000e+00 0.0000000e+00 
0.0000000e+00 0.0000000e+00 0.0000000e+00 
-9.8386971e-04 0.0000000e+00 1.2919646e-02 
-9.8386971e-04 0.0000000e+00 1.2919646e-02 
0.0000000e+00 0.0000000e+00 0.0000000e+00 
0.0000000e+00 0.0000000e+00 0.0000000e+00 
-1.0083434e-03 0.0000000e+00 1.3387375e-02 
-1.0083434e-03 0.0000000e+00 1.3387375e-02 
0.0000000e+00 0.0000000e+00 0.0000000e+00 
0.0000000e+00 0.0000000e+00 0.0000000e+00 
-1.0314294e-03 0.0000000e+00 1.3848056e-02 
-1.0314294e-03 0.0000000e+00 1.3848056e-02 
0.0000000e+00 0.0000000e+00 0.0000000e+00 
0.0000000e+00 0.0000000e+00 0.0000000e+00 
-1.0531337e-03 0.0000000e+00 1.4301637e-02 
-1.0531337e-03 0.0000000e+00 1.4301637e-02 
0.0000000e+00 0.0000000e+00 0.0000000e+00 
0.0000000e+00 0.0000000e+00 0.0000000e+00 
-1.0734381e-03 0.0000000e+00 1.4747898e-02 
0.0000000e+00 0.0000000e+00 0.0000000e+00 
-1.0734381e-03 0.0000000e+00 1.4747898e-02 
0.0000000e+00 0.0000000e+00 0.0000000e+00 
-4.7620568e-05 0.0000000e+00 8.6281528e-04 
-1.0923575e-03 0.0000000e+00 1.5186787e-02 
-4.7620568e-05 0.0000000e+00 8.6281528e-04 
-1.0923575e-03 0.0000000e+00 1.5186787e-02 
-9.0904065e-05 0.0000000e+00 1.7641235e-03 
-1.1099321e-03 0.0000000e+00 1.5618425e-02 
-9.0904065e-05 0.0000000e+00 1.7641235e-03 
-1.1099321e-03 0.0000000e+00 1.5618425e-02 
-1.3156019e-04 0.0000000e+00 2.6718862e-03 
-1.3156019e-04 0.0000000e+00 2.6718862e-03 
-1.1261734e-03 0.0000000e+00 1.6042780e-02 
-1.1261734e-03 0.0000000e+00 1.6042780e-02 
-1.7043241e-04 0.0000000e+00 3.5733551e-03 
-1.7043241e-04 0.0000000e+00 3.5733551e-03 
-1.1410629e-03 0.0000000e+00 1.6459613e-02 
-1.1410629e-03 0.0000000e+00 1.6459613e-02 
-2.0750070e-04 0.0000000e+00 4.4684206e-03 
-2.0750070e-04 0.0000000e+00 4.4684206e-03 
-1.1546064e-03 0.0000000e+00 1.6868820e-02 
-1.1546064e-03 0.0000000e+00 1.6868820e-02 
-2.4264263e-04 0.0000000e+00 5.3566129e-03 
-2.4264263e-04 0.0000000e+00 5.3566129e-03 
-1.1668376e-03 0.0000000e+00 1.7270480e-02 
-1.1668376e-03 0.0000000e+00 1.7270480e-02 
-2.7566539e-04 0.0000000e+00 6.2371512e-03 
-2.7566539e-04 0.0000000e+00 6.2371512e-03 
-1.1777686e-03 0.0000000e+00 1.7664546e-02 
-1.1777686e-03 0.0000000e+00 1.7664546e-02 
-3.0642359e-04 0.0000000e+00 7.1094118e-03 
-3.0642359e-04 0.0000000e+00 7.1094118e-03 
-1.1873943e-03 0.0000000e+00 1.8050840e-02 
-3.3481051e-04 0.0000000e+00 7.9728763e-03 
-1.1873943e-03 0.0000000e+00 1.8050840e-02 
-3.3481051e-04 0.0000000e+00 7.9728763e-03 
-3.6073355e-04 0.0000000e+00 8.8270677e-03 
-1.1957307e-03 0.0000000e+00 1.8429294e-02 
-3.6073355e-04 0.0000000e+00 8.8270677e-03 
-1.1957307e-03 0.0000000e+00 1.8429294e-02 
-3.8412940e-04 0.0000000e+00 9.6715920e-03 
-1.2028116e-03 0.0000000e+00 1.8799984e-02 
-3.8412940e-04 0.0000000e+00 9.6715920e-03 
-1.2028116e-03 0.0000000e+00 1.8799984e-02 
-4.0496593e-04 0.0000000e+00 1.0506157e-02 
-4.0496593e-04 0.0000000e+00 1.0506157e-02 
-1.2086543e-03 0.0000000e+00 1.9162887e-02 
-1.2086543e-03 0.0000000e+00 1.9162887e-02 
-4.2323692e-04 0.0000000e+00 1.1330581e-02 
-4.2323692e-04 0.0000000e+00 1.1330581e-02 
-1.2132569e-03 0.0000000e+00 1.9517823e-02 
-1.2132569e-03 0.0000000e+00 1.9517823e-02 
-4.3891395e-04 0.0000000e+00 1.2144574e-02 
-4.3891395e-04 0.0000000e+00 1.2144574e-02 
-1.2166317e-03 0.0000000e+00 1.9864694e-02 
-1.2166317e-03 0.0000000e+00 1.9864694e-02 
-4.5195250e-04 0.0000000e+00 1.2947759e-02 
-4.5195250e-04 0.0000000e+00 1.2947759e-02 
-1.2188091e-03 0.0000000e+00 2.0203550e-02 
-1.2188091e-03 0.0000000e+00 2.0203550e-02 
-4.6234108e-04 0.0000000e+00 1.3739866e-02 
-4.6234108e-04 0.0000000e+00 1.3739866e-02 
-1.2198073e-03 0.0000000e+00 2.0534356e-02 
-1.2198073e-03 0.0000000e+00 2.0534356e-02 
-4.7008092e-04 0.0000000e+00 1.4520686e-02 
-4.7008092e-04 0.0000000e+00 1.4520686e-02 
-1.2196355e-03 0.0000000e+00 2.0856983e-02 
-1.2196355e-03 0.0000000e+00 2.0856983e-02 
-4.7516281e-04 0.0000000e+00 1.5289946e-02 
-4.7516281e-04 0.0000000e+00 1.5289946e-02 
-1.2183151e-03 0.0000000e+00 2.1171380e-02 
-1.2183151e-03 0.0000000e+00 2.1171380e-02 
-4.7758371e-04 0.0000000e+00 1.6047371e-02 
-4.7758371e-04 0.0000000e+00 1.6047371e-02 
-1.2158767e-03 0.0000000e+00 2.1477592e-02 
-4.7736387e-04 0.0000000e+00 1.6792786e-02 
-1.2158767e-03 0.0000000e+00 2.1477592e-02 
-4.7736387e-04 0.0000000e+00 1.6792786e-02 
-1.2123420e-03 0.0000000e+00 2.1775596e-02 
-4.7453957e-04 0.0000000e+00 1.7526081e-02 
-1.2123420e-03 0.0000000e+00 2.1775596e-02 
-4.7453957e-04 0.0000000e+00 1.7526081e-02 
-4.6913016e-04 0.0000000e+00 1.8247068e-02 
-1.2077227e-03 0.0000000e+00 2.2065270e-02 
-4.6913016e-04 0.0000000e+00 1.8247068e-02 
-1.2077227e-03 0.0000000e+00 2.2065270e-02 
-4.6114529e-04 0.0000000e+00 1.8955477e-02 
-4.6114529e-04 0.0000000e+00 1.8955477e-02 
-1.2020386e-03 0.0000000e+00 2.2346544e-02 
-1.2020386e-03 0.0000000e+00 2.2346544e-02 
-4.5061232e-04 0.0000000e+00 1.9651115e-02 
-4.5061232e-04 0.0000000e+00 1.9651115e-02 
-1.1953183e-03 0.0000000e+00 2.2619437e-02 
-1.1953183e-03 0.0000000e+00 2.2619437e-02 
-4.3756342e-04 0.0000000e+00 2.0333800e-02 
-4.3756342e-04 0.0000000e+00 2.0333800e-02 
-1.1875832e-03 0.0000000e+00 2.2883915e-02 
-1.1875832e-03 0.0000000e+00 2.2883915e-02 
-4.2202878e-04 0.0000000e+00 2.1003326e-02 
-4.2202878e-04 0.0000000e+00 2.1003326e-02 
-1.1788527e-03 0.0000000e+00 2.3139889e-02 
-1.1788527e-03 0.0000000e+00 2.3139889e-02 
-4.0404776e-04 0.0000000e+00 2.1659519e-02 
-4.0404776e-04 0.0000000e+00 2.1659519e-02 
-1.1691533e-03 0.0000000e+00 2.3387333e-02 
-1.1691533e-03 0.0000000e+00 2.3387333e-02 
-3.8366751e-04 0.0000000e+00 2.2302230e-02 
-3.8366751e-04 0.0000000e+00 2.2302230e-02 
-1.1585141e-03 0.0000000e+00 2.3626267e-02 
-1.1585141e-03 0.0000000e+00 2.3626267e-02 
-3.6094073e-04 0.0000000e+00 2.2931344e-02 
-3.6094073e-04 0.0000000e+00 2.2931344e-02 
-1.1469595e-03 0.0000000e+00 2.3856663e-02 
-1.1469595e-03 0.0000000e+00 2.3856663e-02 
-3.3591764e-04 0.0000000e+00 2.3546708e-02 
-3.3591764e-04 0.0000000e+00 2.3546708e-02 
-1.1345105e-03 0.0000000e+00 2.4078443e-02 
-1.1345105e-03 0.0000000e+00 2.4078443e-02 
-3.0864764e-04 0.0000000e+00 2.4148160e-02 
-3.0864764e-04 0.0000000e+00 2.4148160e-02 
-1.1211923e-03 0.0000000e+00 2.4291564e-02 
-1.1211923e-03 0.0000000e+00 2.4291564e-02 
-2.7918396e-04 0.0000000e+00 2.4735535e-02 
-2.7918396e-04 0.0000000e+00 2.4735535e-02 
-1.1070332e-03 0.0000000e+00 2.4496027e-02 
-1.1070332e-03 0.0000000e+00 2.4496027e-02 
-2.4757894e-04 0.0000000e+00 2.5308644e-02 
-2.4757894e-04 0.0000000e+00 2.5308644e-02 
-1.0920590e-03 0.0000000e+00 2.4691802e-02 
-1.0920590e-03 0.0000000e+00 2.4691802e-02 
-2.1389287e-04 0.0000000e+00 2.5867333e-02 
-2.1389287e-04 0.0000000e+00 2.5867333e-02 
-1.0762951e-03 0.0000000e+00 2.4878842e-02 
-1.7819610e-04 0.0000000e+00 2.6411509e-02 
-1.0762951e-03 0.0000000e+00 2.4878842e-02 
-1.7819610e-04 0.0000000e+00 2.6411509e-02 
-1.4055599e-04 0.0000000e+00 2.6941052e-02 
-1.0597706e-03 0.0000000e+00 2.5057129e-02 
-1.4055599e-04 0.0000000e+00 2.6941052e-02 
-1.0597706e-03 0.0000000e+00 2.5057129e-02 
-1.0103975e-04 0.0000000e+00 2.7455809e-02 
-1.0425149e-03 0.0000000e+00 2.5226665e-02 
-1.0103975e-04 0.0000000e+00 2.7455809e-02 
-1.0425149e-03 0.0000000e+00 2.5226665e-02 
-5.9721652e-05 0.0000000e+00 2.7955673e-02 
-5.9721652e-05 0.0000000e+00 2.7955673e-02 
-1.0245556e-03 0.0000000e+00 2.5387435e-02 
-1.0245556e-03 0.0000000e+00 2.5387435e-02 
-1.6680663e-05 0.0000000e+00 2.8440572e-02 
-1.6680663e-05 0.0000000e+00 2.8440572e-02 
-1.0059200e-03 0.0000000e+00 2.5539403e-02 
-1.0059200e-03 0.0000000e+00 2.5539403e-02 
2.8009469e-05 0.0000000e+00 2.8910379e-02 
2.8009469e-05 0.0000000e+00 2.8910379e-02 
-9.8663648e-04 0.0000000e+00 2.5682549e-02 
-9.8663648e-04 0.0000000e+00 2.5682549e-02 
7.4277337e-05 0.0000000e+00 2.9364890e-02 
7.4277337e-05 0.0000000e+00 2.9364890e-02 
-9.6673446e-04 0.0000000e+00 2.5816865e-02 
-9.6673446e-04 0.0000000e+00 2.5816865e-02 
1.2204013e-04 0.0000000e+00 2.9803988e-02 
1.2204013e-04 0.0000000e+00 2.9803988e-02 
-9.4624285e-04 0.0000000e+00 2.5942335e-02 
-9.4624285e-04 0.0000000e+00 2.5942335e-02 
1.7120723e-04 0.0000000e+00 3.0227657e-02 
1.7120723e-04 0.0000000e+00 3.0227657e-02 
-9.2519082e-04 0.0000000e+00 2.6058945e-02 
-9.2519082e-04 0.0000000e+00 2.6058945e-02 
2.2169558e-04 0.0000000e+00 3.0635785e-02 
2.2169558e-04 0.0000000e+00 3.0635785e-02 
-9.0360862e-04 0.0000000e+00 2.6166689e-02 
-9.0360862e-04 0.0000000e+00 2.6166689e-02 
2.7342238e-04 0.0000000e+00 3.1028168e-02 
2.7342238e-04 0.0000000e+00 3.1028168e-02 
-8.8152653e-04 0.0000000e+00 2.6265564e-02 
-8.8152653e-04 0.0000000e+00 2.6265564e-02 
3.2628990e-04 0.0000000e+00 3.1404751e-02 
3.2628990e-04 0.0000000e+00 3.1404751e-02 
-8.5897480e-04 0.0000000e+00 2.6355575e-02 
-8.5897480e-04 0.0000000e+00 2.6355575e-02 
3.8019540e-04 0.0000000e+00 3.1765645e-02 
3.8019540e-04 0.0000000e+00 3.1765645e-02 
-8.3598375e-04 0.0000000e+00 2.6436725e-02 
-8.3598375e-04 0.0000000e+00 2.6436725e-02 
4.3504648e-04 0.0000000e+00 3.2110808e-02 
4.3504648e-04 0.0000000e+00 3.2110808e-02 
-8.1258349e-04 0.0000000e+00 2.6509013e-02 
-8.1258349e-04 0.0000000e+00 2.6509013e-02 
4.9074625e-04 0.0000000e+00 3.2440082e-02 
4.9074625e-04 0.0000000e+00 3.2440082e-02 
-7.8880416e-04 0.0000000e+00 2.6572439e-02 
-7.8880416e-04 0.0000000e+00 2.6572439e-02 
5.4718298e-04 0.0000000e+00 3.2753593e-02 
5.4718298e-04 0.0000000e+00 3.2753593e-02 
-7.6467669e-04 0.0000000e+00 2.6627012e-02 
-7.6467669e-04 0.0000000e+00 2.6627012e-02 
6.0397007e-04 0.0000000e+00 3.3050282e-02 
6.0397007e-04 0.0000000e+00 3.3050282e-02 
-7.4015885e-04 0.0000000e+00 2.6672888e-02 
-7.4015885e-04 0.0000000e+00 2.6672888e-02 
6.7280682e-04 0.0000000e+00 3.3386422e-02 
6.7280682e-04 0.0000000e+00 3.3386422e-02 
-7.1035868e-04 0.0000000e+00 2.6716245e-02 
-7.1035868e-04 0.0000000e+00 2.6716245e-02 
7.5620582e-04 0.0000000e+00 3.3761296e-02 
7.5620582e-04 0.0000000e+00 3.3761296e-02 
-6.7412357e-04 0.0000000e+00 2.6751461e-02 
-6.7412357e-04 0.0000000e+00 2.6751461e-02 
8.5708845e-04 0.0000000e+00 3.4170454e-02 
8.5708845e-04 0.0000000e+00 3.4170454e-02 
-6.3052643e-04 0.0000000e+00 2.6769650e-02 
-6.3052643e-04 0.0000000e+00 2.6769650e-02 
9.6389279e-04 0.0000000e+00 3.4553573e-02 
9.6389279e-04 0.0000000e+00 3.4553573e-02 
-5.8646303e-04 0.0000000e+00 2.6762201e-02 
-5.8646303e-04 0.0000000e+00 2.6762201e-02 
1.0706949e-03 0.0000000e+00 3.4886875e-02 
1.0706949e-03 0.0000000e+00 3.4886875e-02 
-5.4208248e-04 0.0000000e+00 2.6729010e-02 
-5.4208248e-04 0.0000000e+00 2.6729010e-02 
1.1769569e-03 0.0000000e+00 3.5170003e-02 
1.1769569e-03 0.0000000e+00 3.5170003e-02 
-4.9753084e-04 0.0000000e+00 2.6670224e-02 
-4.9753084e-04 0.0000000e+00 2.6670224e-02 
1.2821338e-03 0.0000000e+00 3.5402927e-02 
1.2821338e-03 0.0000000e+00 3.5402927e-02 
-4.5295241e-04 0.0000000e+00 2.6585924e-02 
-4.5295241e-04 0.0000000e+00 2.6585924e-02 
1.3856829e-03 0.0000000e+00 3.5585719e-02 
1.3856829e-03 0.0000000e+00 3.5585719e-02 
-4.0849817e-04 0.0000000e+00 2.6476087e-02 
-4.0849817e-04 0.0000000e+00 2.6476087e-02 
1.4870718e-03 0.0000000e+00 3.5718641e-02 
1.4870718e-03 0.0000000e+00 3.5718641e-02 
-3.6430528e-04 0.0000000e+00 2.6341035e-02 
-3.6430528e-04 0.0000000e+00 2.6341035e-02 
1.5857841e-03 0.0000000e+00 3.5802087e-02 
1.5857841e-03 0.0000000e+00 3.5802087e-02 
-3.2050927e-04 0.0000000e+00 2.6180927e-02 