# vtk DataFile Version 4.0
vtk output
ASCII
DATASET UNSTRUCTURED_GRID
POINTS 824 float
-6.4148600e-05 1.0000000e-02 -4.4525366e-03 
-1.0680180e-04 1.0000000e-02 -2.8088474e-03 
3.4513260e-04 1.0000000e-02 -6.0450544e-03 
1.3803532e-03 1.0000000e-02 -7.3230534e-03 
6.5829700e-05 1.0000000e-02 -1.1736922e-03 
2.7142144e-03 1.0000000e-02 -8.2851896e-03 
5.0392030e-04 1.0000000e-02 6.5784910e-04 
4.1780764e-03 1.0000000e-02 -9.0342357e-03 
1.1628646e-03 1.0000000e-02 2.4220088e-03 
5.7070961e-03 1.0000000e-02 -9.6390187e-03 
2.0046218e-03 1.0000000e-02 4.1066196e-03 
7.2731595e-03 1.0000000e-02 -1.0140047e-02 
-6.4148600e-05 0.0000000e+00 -4.4525366e-03 
-1.0680180e-04 0.0000000e+00 -2.8088474e-03 
3.4513260e-04 0.0000000e+00 -6.0450544e-03 
1.3803532e-03 0.0000000e+00 -7.3230534e-03 
6.5829700e-05 0.0000000e+00 -1.1736922e-03 
2.9952540e-03 1.0000000e-02 5.7082181e-03 
8.8622628e-03 1.0000000e-02 -1.0562311e-02 
2.7142144e-03 0.0000000e+00 -8.2851896e-03 
5.0392030e-04 0.0000000e+00 6.5784910e-04 
4.1780764e-03 0.0000000e+00 -9.0342357e-03 
1.1628646e-03 0.0000000e+00 2.4220088e-03 
1.0466628e-02 1.0000000e-02 -1.0922252e-02 
4.1067238e-03 1.0000000e-02 7.2284501e-03 
5.7070961e-03 0.0000000e+00 -9.6390187e-03 
2.0046218e-03 0.0000000e+00 4.1066196e-03 
7.2731595e-03 0.0000000e+00 -1.0140047e-02 
1.2081579e-02 1.0000000e-02 -1.1231240e-02 
5.3166988e-03 1.0000000e-02 8.6715129e-03 
2.9952540e-03 0.0000000e+00 5.7082181e-03 
8.8622628e-03 0.0000000e+00 -1.0562311e-02 
1.3704120e-02 1.0000000e-02 -1.1497501e-02 
1.0466628e-02 0.0000000e+00 -1.0922252e-02 
4.1067238e-03 0.0000000e+00 7.2284501e-03 
6.6076374e-03 1.0000000e-02 1.0042624e-02 
1.5332244e-02 1.0000000e-02 -1.1727173e-02 
1.2081579e-02 0.0000000e+00 -1.1231240e-02 
5.3166988e-03 0.0000000e+00 8.6715129e-03 
7.9658343e-03 1.0000000e-02 1.1347144e-02 
1.3704120e-02 0.0000000e+00 -1.1497501e-02 
1.6964543e-02 1.0000000e-02 -1.1925002e-02 
6.6076374e-03 0.0000000e+00 1.0042624e-02 
9.3804686e-03 1.0000000e-02 1.2590236e-02 
1.5332244e-02 0.0000000e+00 -1.1727173e-02 
1.8600004e-02 1.0000000e-02 -1.2094716e-02 
7.9658343e-03 0.0000000e+00 1.1347144e-02 
1.6964543e-02 0.0000000e+00 -1.1925002e-02 
1.0843002e-02 1.0000000e-02 1.3776601e-02 
2.0237876e-02 1.0000000e-02 -1.2239318e-02 
9.3804686e-03 0.0000000e+00 1.2590236e-02 
1.8600004e-02 0.0000000e+00 -1.2094716e-02 
1.2346566e-02 1.0000000e-02 1.4910517e-02 
2.1877591e-02 1.0000000e-02 -1.2361246e-02 
1.0843002e-02 0.0000000e+00 1.3776601e-02 
2.0237876e-02 0.0000000e+00 -1.2239318e-02 
1.3885623e-02 1.0000000e-02 1.5995768e-02 
2.3518711e-02 1.0000000e-02 -1.2462540e-02 
1.2346566e-02 0.0000000e+00 1.4910517e-02 
2.1877591e-02 0.0000000e+00 -1.2361246e-02 
2.5160890e-02 1.0000000e-02 -1.2544903e-02 
1.5455654e-02 1.0000000e-02 1.7035707e-02 
1.3885623e-02 0.0000000e+00 1.5995768e-02 
2.3518711e-02 0.0000000e+00 -1.2462540e-02 
2.6803852e-02 1.0000000e-02 -1.2609772e-02 
1.7052912e-02 1.0000000e-02 1.8033321e-02 
2.5160890e-02 0.0000000e+00 -1.2544903e-02 
1.5455654e-02 0.0000000e+00 1.7035707e-02 
2.8447376e-02 1.0000000e-02 -1.2658389e-02 
2.6803852e-02 0.0000000e+00 -1.2609772e-02 
1.7052912e-02 0.0000000e+00 1.8033321e-02 
1.8674284e-02 1.0000000e-02 1.8991246e-02 
3.0091279e-02 1.0000000e-02 -1.2691814e-02 
2.8447376e-02 0.0000000e+00 -1.2658389e-02 
1.8674284e-02 0.0000000e+00 1.8991246e-02 
2.0317149e-02 1.0000000e-02 1.9911822e-02 
3.0091279e-02 0.0000000e+00 -1.2691814e-02 
3.1735410e-02 1.0000000e-02 -1.2710971e-02 
2.0317149e-02 0.0000000e+00 1.9911822e-02 
2.1979295e-02 1.0000000e-02 2.0797113e-02 
3.1735410e-02 0.0000000e+00 -1.2710971e-02 
3.3379643e-02 1.0000000e-02 -1.2716676e-02 
2.1979295e-02 0.0000000e+00 2.0797113e-02 
2.3658832e-02 1.0000000e-02 2.1648949e-02 
3.3379643e-02 0.0000000e+00 -1.2716676e-02 
3.5023871e-02 1.0000000e-02 -1.2709629e-02 
2.3658832e-02 0.0000000e+00 2.1648949e-02 
2.5354100e-02 1.0000000e-02 2.2469029e-02 
3.5023871e-02 0.0000000e+00 -1.2709629e-02 
3.6668001e-02 1.0000000e-02 -1.2690457e-02 
2.5354100e-02 0.0000000e+00 2.2469029e-02 
2.7063712e-02 1.0000000e-02 2.3258772e-02 
3.6668001e-02 0.0000000e+00 -1.2690457e-02 
3.8312016e-02 1.0000000e-02 -1.2663038e-02 
2.7063712e-02 0.0000000e+00 2.3258772e-02 
3.8312016e-02 0.0000000e+00 -1.2663038e-02 
2.8786417e-02 1.0000000e-02 2.4019532e-02 
3.9956032e-02 1.0000000e-02 -1.2635752e-02 
2.8786417e-02 0.0000000e+00 2.4019532e-02 
3.9956032e-02 0.0000000e+00 -1.2635752e-02 
3.0521135e-02 1.0000000e-02 2.4752486e-02 
4.1600048e-02 1.0000000e-02 -1.2608467e-02 
3.0521135e-02 0.0000000e+00 2.4752486e-02 
4.1600048e-02 0.0000000e+00 -1.2608467e-02 
3.2266919e-02 1.0000000e-02 2.5458676e-02 
4.3299814e-02 1.0000000e-02 -1.2580255e-02 
3.2266919e-02 0.0000000e+00 2.5458676e-02 
4.3299814e-02 0.0000000e+00 -1.2580255e-02 
3.4022902e-02 1.0000000e-02 2.6139111e-02 
4.5339533e-02 1.0000000e-02 -1.2546402e-02 
3.4022902e-02 0.0000000e+00 2.6139111e-02 
4.5339533e-02 0.0000000e+00 -1.2546402e-02 
3.5788340e-02 1.0000000e-02 2.6794623e-02 
4.7787196e-02 1.0000000e-02 -1.2505778e-02 
3.5788340e-02 0.0000000e+00 2.6794623e-02 
3.7562554e-02 1.0000000e-02 2.7425996e-02 
4.7787196e-02 0.0000000e+00 -1.2505778e-02 
3.7562554e-02 0.0000000e+00 2.7425996e-02 
3.9344928e-02 1.0000000e-02 2.8033950e-02 
5.0379113e-02 1.0000000e-02 -1.2462760e-02 
3.9344928e-02 0.0000000e+00 2.8033950e-02 
5.0379113e-02 0.0000000e+00 -1.2462760e-02 
4.1134916e-02 1.0000000e-02 2.8619109e-02 
5.2971029e-02 1.0000000e-02 -1.2419741e-02 
4.1134916e-02 0.0000000e+00 2.8619109e-02 
5.2971029e-02 0.0000000e+00 -1.2419741e-02 
4.2932026e-02 1.0000000e-02 2.9182016e-02 
4.2932026e-02 0.0000000e+00 2.9182016e-02 
5.5562946e-02 1.0000000e-02 -1.2376723e-02 
4.5339682e-02 1.0000000e-02 2.9899231e-02 
5.5562946e-02 0.0000000e+00 -1.2376723e-02 
4.5339682e-02 0.0000000e+00 2.9899231e-02 
5.8154863e-02 1.0000000e-02 -1.2333705e-02 
4.7758221e-02 1.0000000e-02 3.0578844e-02 
5.8154863e-02 0.0000000e+00 -1.2333705e-02 
4.7758221e-02 0.0000000e+00 3.0578844e-02 
6.0746779e-02 1.0000000e-02 -1.2290686e-02 
5.0186760e-02 1.0000000e-02 3.1221807e-02 
6.0746779e-02 0.0000000e+00 -1.2290686e-02 
5.0186760e-02 0.0000000e+00 3.1221807e-02 
6.3338696e-02 1.0000000e-02 -1.2247668e-02 
5.2624513e-02 1.0000000e-02 3.1828903e-02 
6.3338696e-02 0.0000000e+00 -1.2247668e-02 
5.2624513e-02 0.0000000e+00 3.1828903e-02 
5.5070762e-02 1.0000000e-02 3.2400804e-02 
6.5930613e-02 1.0000000e-02 -1.2204650e-02 
5.5070762e-02 0.0000000e+00 3.2400804e-02 
6.5930613e-02 0.0000000e+00 -1.2204650e-02 
5.7524847e-02 1.0000000e-02 3.2938082e-02 
6.8522529e-02 1.0000000e-02 -1.2161631e-02 
5.7524847e-02 0.0000000e+00 3.2938082e-02 
6.8522529e-02 0.0000000e+00 -1.2161631e-02 
5.9986169e-02 1.0000000e-02 3.3441170e-02 
7.1114446e-02 1.0000000e-02 -1.2118613e-02 
5.9986169e-02 0.0000000e+00 3.3441170e-02 
7.1114446e-02 0.0000000e+00 -1.2118613e-02 
6.2454163e-02 1.0000000e-02 3.3910436e-02 
6.2454163e-02 0.0000000e+00 3.3910436e-02 
7.3706362e-02 1.0000000e-02 -1.2075595e-02 
7.3706362e-02 0.0000000e+00 -1.2075595e-02 
6.4928303e-02 1.0000000e-02 3.4346139e-02 
6.4928303e-02 0.0000000e+00 3.4346139e-02 
7.6298279e-02 1.0000000e-02 -1.2032577e-02 
7.6298279e-02 0.0000000e+00 -1.2032577e-02 
6.7408092e-02 1.0000000e-02 3.4748446e-02 
6.7408092e-02 0.0000000e+00 3.4748446e-02 
7.8890196e-02 1.0000000e-02 -1.1989558e-02 
7.8890196e-02 0.0000000e+00 -1.1989558e-02 
6.9893057e-02 1.0000000e-02 3.5117436e-02 
6.9893057e-02 0.0000000e+00 3.5117436e-02 
8.1482112e-02 1.0000000e-02 -1.1946540e-02 
8.1482112e-02 0.0000000e+00 -1.1946540e-02 
7.2382742e-02 1.0000000e-02 3.5453098e-02 
7.2382742e-02 0.0000000e+00 3.5453098e-02 
8.4074029e-02 1.0000000e-02 -1.1903522e-02 
7.4876707e-02 1.0000000e-02 3.5755332e-02 
8.4074029e-02 0.0000000e+00 -1.1903522e-02 
7.4876707e-02 0.0000000e+00 3.5755332e-02 
8.6665946e-02 1.0000000e-02 -1.1860503e-02 
7.7374516e-02 1.0000000e-02 3.6023948e-02 
8.6665946e-02 0.0000000e+00 -1.1860503e-02 
7.7374516e-02 0.0000000e+00 3.6023948e-02 
8.9257862e-02 1.0000000e-02 -1.1817485e-02 
7.9875738e-02 1.0000000e-02 3.6258665e-02 
8.9257862e-02 0.0000000e+00 -1.1817485e-02 
7.9875738e-02 0.0000000e+00 3.6258665e-02 
8.2379940e-02 1.0000000e-02 3.6459105e-02 
9.1849779e-02 1.0000000e-02 -1.1774467e-02 
8.2379940e-02 0.0000000e+00 3.6459105e-02 
9.1849779e-02 0.0000000e+00 -1.1774467e-02 
8.4886681e-02 1.0000000e-02 3.6624786e-02 
9.4441696e-02 1.0000000e-02 -1.1731448e-02 
8.4886681e-02 0.0000000e+00 3.6624786e-02 
9.4441696e-02 0.0000000e+00 -1.1731448e-02 
8.7395510e-02 1.0000000e-02 3.6755108e-02 
8.7395510e-02 0.0000000e+00 3.6755108e-02 
9.7033612e-02 1.0000000e-02 -1.1688430e-02 
9.7033612e-02 0.0000000e+00 -1.1688430e-02 
8.9905951e-02 1.0000000e-02 3.6849401e-02 
8.9905951e-02 0.0000000e+00 3.6849401e-02 
9.9625529e-02 1.0000000e-02 -1.1645412e-02 
9.9625529e-02 0.0000000e+00 -1.1645412e-02 
9.2417505e-02 1.0000000e-02 3.6906832e-02 
9.2417505e-02 0.0000000e+00 3.6906832e-02 
1.0221745e-01 1.0000000e-02 -1.1602393e-02 
1.0221745e-01 0.0000000e+00 -1.1602393e-02 
9.4929640e-02 1.0000000e-02 3.6926425e-02 
9.4929640e-02 0.0000000e+00 3.6926425e-02 
1.0480936e-01 1.0000000e-02 -1.1559375e-02 
1.0480936e-01 0.0000000e+00 -1.1559375e-02 
9.7441776e-02 1.0000000e-02 3.6907077e-02 
9.7441776e-02 0.0000000e+00 3.6907077e-02 
1.0740128e-01 1.0000000e-02 -1.1516357e-02 
1.0740128e-01 0.0000000e+00 -1.1516357e-02 
9.9953281e-02 1.0000000e-02 3.6847529e-02 
9.9953281e-02 0.0000000e+00 3.6847529e-02 
1.0999320e-01 1.0000000e-02 -1.1473339e-02 
1.0246345e-01 1.0000000e-02 3.6746314e-02 
1.0999320e-01 0.0000000e+00 -1.1473339e-02 
1.0246345e-01 0.0000000e+00 3.6746314e-02 
1.0497150e-01 1.0000000e-02 3.6601738e-02 
1.1258511e-01 1.0000000e-02 -1.1430320e-02 
1.0497150e-01 0.0000000e+00 3.6601738e-02 
1.1258511e-01 0.0000000e+00 -1.1430320e-02 
1.0747666e-01 1.0000000e-02 3.6413638e-02 
1.1517703e-01 1.0000000e-02 -1.1387302e-02 
1.0747666e-01 0.0000000e+00 3.6413638e-02 
[...]
POINT_DATA 824
FIELD FieldData 2
DISPLACEMENT 3 824  float
0.0000000e+00 0.0000000e+00 0.0000000e+00 
0.0000000e+00 0.0000000e+00 0.0000000e+00 
0.0000000e+00 0.0000000e+00 0.0000000e+00 
0.0000000e+00 0.0000000e+00 0.0000000e+00 
0.0000000e+00 0.0000000e+00 0.0000000e+00 
0.0000000e+00 0.0000000e+00 0.0000000e+00 
0.0000000e+00 0.0000000e+00 0.0000000e+00 
0.0000000e+00 0.0000000e+00 0.0000000e+00 
0.0000000e+00 0.0000000e+00 0.0000000e+00 
0.0000000e+00 0.0000000e+00 0.0000000e+00 
0.0000000e+00 0.0000000e+00 0.0000000e+00 
0.0000000e+00 0.0000000e+00 0.0000000e+00 
0.0000000e+00 0.0000000e+00 0.0000000e+00 
0.0000000e+00 0.0000000e+00 0.0000000e+00 
0.0000000e+00 0.0000000e+00 0.0000000e+00 
0.0000000e+00 0.0000000e+00 0.0000000e+00 
0.0000000e+00 0.0000000e+00 0.0000000e+00 
0.0000000e+00 0.0000000e+00 0.0000000e+00 
0.0000000e+00 0.0000000e+00 0.0000000e+00 
0.0000000e+00 0.0000000e+00 0.0000000e+00 
0.0000000e+00 0.0000000e+00 0.0000000e+00 
0.0000000e+00 0.0000000e+00 0.0000000e+00 
0.0000000e+00 0.0000000e+00 0.0000000e+00 
0.0000000e+00 0.0000000e+00 0.0000000e+00 
0.0000000e+00 0.0000000e+00 0.0000000e+00 
0.0000000e+00 0.0000000e+00 0.0000000e+00 
0.0000000e+00 0.0000000e+00 0.0000000e+00 
0.0000000e+00 0.0000000e+00 0.0000000e+00 
0.0000000e+00 0.0000000e+00 0.0000000e+00 
0.0000000e+00 0.0000000e+00 0.0000000e+00 
0.0000000e+00 0.0000000e+00 0.0000000e+00 
0.0000000e+00 0.0000000e+00 0.0000000e+00 
0.0000000e+00 0.0000000e+00 0.0000000e+00 
0.0000000e+00 0.0000000e+00 0.0000000e+00 
0.0000000e+00 0.0000000e+00 0.0000000e+00 
0.0000000e+00 0.0000000e+00 0.0000000e+00 
0.0000000e+00 0.0000000e+00 0.0000000e+00 
0.0000000e+00 0.0000000e+00 0.0000000e+00 
0.0000000e+00 0.0000000e+00 0.0000000e+00 
0.0000000e+00 0.0000000e+00 0.0000000e+00 
0.0000000e+00 0.0000000e+00 0.0000000e+00 
0.0000000e+00 0.0000000e+00 0.0000000e+00 
0.0000000e+00 0.0000000e+00 0.0000000e+00 
0.0000000e+00 0.0000000e+00 0.0000000e+00 
0.0000000e+00 0.0000000e+00 0.0000000e+00 
0.0000000e+00 0.0000000e+00 0.0000000e+00 
0.0000000e+00 0.0000000e+00 0.0000000e+00 
0.0000000e+00 0.0000000e+00 0.0000000e+00 
0.0000000e+00 0.0000000e+00 0.0000000e+00 
0.0000000e+00 0.0000000e+00 0.0000000e+00 
0.0000000e+00 0.0000000e+00 0.0000000e+00 
0.0000000e+00 0.0000000e+00 0.0000000e+00 
0.0000000e+00 0.0000000e+00 0.0000000e+00 
0.0000000e+00 0.0000000e+00 0.0000000e+00 
0.0000000e+00 0.0000000e+00 0.0000000e+00 
0.0000000e+00 0.0000000e+00 0.0000000e+00 
0.0000000e+00 0.0000000e+00 0.0000000e+00 
0.0000000e+00 0.0000000e+00 0.0000000e+00 
0.0000000e+00 0.0000000e+00 0.0000000e+00 
0.0000000e+00 0.0000000e+00 0.0000000e+00 
0.0000000e+00 0.0000000e+00 0.0000000e+00 
0.0000000e+00 0.0000000e+00 0.0000000e+00 
0.0000000e+00 0.0000000e+00 0.0000000e+00 
0.0000000e+00 0.0000000e+00 0.0000000e+00 
0.0000000e+00 0.0000000e+00 0.0000000e+00 
0.0000000e+00 0.0000000e+00 0.0000000e+00 
0.0000000e+00 0.0000000e+00 0.0000000e+00 
0.0000000e+00 0.0000000e+00 0.0000000e+00 
0.0000000e+00 0.0000000e+00 0.0000000e+00 
0.0000000e+00 0.0000000e+00 0.0000000e+00 
0.0000000e+00 0.0000000e+00 0.0000000e+00 
0.0000000e+00 0.0000000e+00 0.0000000e+00 
0.0000000e+00 0.0000000e+00 0.0000000e+00 
0.0000000e+00 0.0000000e+00 0.0000000e+00 
0.0000000e+00 0.0000000e+00 0.0000000e+00 
0.0000000e+00 0.0000000e+00 0.0000000e+00 
0.0000000e+00 0.0000000e+00 0.0000000e+00 
0.0000000e+00 0.0000000e+00 0.0000000e+00 
0.0000000e+00 0.0000000e+00 0.0000000e+00 
0.0000000e+00 0.0000000e+00 0.0000000e+00 
0.0000000e+00 0.0000000e+00 0.0000000e+00 
0.0000000e+00 0.0000000e+00 0.0000000e+00 
0.0000000e+00 0.0000000e+00 0.0000000e+00 
0.0000000e+00 0.0000000e+00 0.0000000e+00 
0.0000000e+00 0.0000000e+00 0.0000000e+00 
0.0000000e+00 0.0000000e+00 0.0000000e+00 
0.0000000e+00 0.0000000e+00 0.0000000e+00 
0.0000000e+00 0.0000000e+00 0.0000000e+00 
0.0000000e+00 0.0000000e+00 0.0000000e+00 
0.0000000e+00 0.0000000e+00 0.0000000e+00 
0.0000000e+00 0.0000000e+00 0.0000000e+00 
0.0000000e+00 0.0000000e+00 0.0000000e+00 
0.0000000e+00 0.0000000e+00 0.0000000e+00 
0.0000000e+00 0.0000000e+00 0.0000000e+00 
0.0000000e+00 0.0000000e+00 0.0000000e+00 
0.0000000e+00 0.0000000e+00 0.0000000e+00 
0.0000000e+00 0.0000000e+00 0.0000000e+00 
-4.2843881e-05 0.0000000e+00 3.8714127e-04 
0.0000000e+00 0.0000000e+00 0.0000000e+00 
-4.2843881e-05 0.0000000e+00 3.8714127e-04 
0.0000000e+00 0.0000000e+00 0.0000000e+00 
-8.4436228e-05 0.0000000e+00 7.6923601e-04 
0.0000000e+00 0.0000000e+00 0.0000000e+00 
-8.4436228e-05 0.0000000e+00 7.6923601e-04 
0.0000000e+00 0.0000000e+00 0.0000000e+00 
-1.2610554e-04 0.0000000e+00 1.1588483e-03 
0.0000000e+00 0.0000000e+00 0.0000000e+00 
-1.2610554e-04 0.0000000e+00 1.1588483e-03 
0.0000000e+00 0.0000000e+00 0.0000000e+00 
-1.7427718e-04 0.0000000e+00 1.6188202e-03 
0.0000000e+00 0.0000000e+00 0.0000000e+00 
-1.7427718e-04 0.0000000e+00 1.6188202e-03 
0.0000000e+00 0.0000000e+00 0.0000000e+00 
-2.2949242e-04 0.0000000e+00 2.1599352e-03 
0.0000000e+00 0.0000000e+00 0.0000000e+00 
0.0000000e+00 0.0000000e+00 0.0000000e+00 
-2.2949242e-04 0.0000000e+00 2.1599352e-03 
0.0000000e+00 0.0000000e+00 0.0000000e+00 
0.0000000e+00 0.0000000e+00 0.0000000e+00 
-2.8497461e-04 0.0000000e+00 2.7202143e-03 
0.0000000e+00 0.0000000e+00 0.0000000e+00 
-2.8497461e-04 0.0000000e+00 2.7202143e-03 
0.0000000e+00 0.0000000e+00 0.0000000e+00 
-3.3758665e-04 0.0000000e+00 3.2680213e-03 
0.0000000e+00 0.0000000e+00 0.0000000e+00 
-3.3758665e-04 0.0000000e+00 3.2680213e-03 
0.0000000e+00 0.0000000e+00 0.0000000e+00 
0.0000000e+00 0.0000000e+00 0.0000000e+00 
-3.8761558e-04 0.0000000e+00 3.8043882e-03 
0.0000000e+00 0.0000000e+00 0.0000000e+00 
-3.8761558e-04 0.0000000e+00 3.8043882e-03 
0.0000000e+00 0.0000000e+00 0.0000000e+00 
-4.3510499e-04 0.0000000e+00 4.3292486e-03 
0.0000000e+00 0.0000000e+00 0.0000000e+00 
-4.3510499e-04 0.0000000e+00 4.3292486e-03 
0.0000000e+00 0.0000000e+00 0.0000000e+00 
-4.7999082e-04 0.0000000e+00 4.8420294e-03 
0.0000000e+00 0.0000000e+00 0.0000000e+00 
-4.7999082e-04 0.0000000e+00 4.8420294e-03 
0.0000000e+00 0.0000000e+00 0.0000000e+00 
-5.2245362e-04 0.0000000e+00 5.3433377e-03 
0.0000000e+00 0.0000000e+00 0.0000000e+00 
-5.2245362e-04 0.0000000e+00 5.3433377e-03 
0.0000000e+00 0.0000000e+00 0.0000000e+00 
0.0000000e+00 0.0000000e+00 0.0000000e+00 
-5.6270112e-04 0.0000000e+00 5.8339484e-03 
0.0000000e+00 0.0000000e+00 0.0000000e+00 
-5.6270112e-04 0.0000000e+00 5.8339484e-03 
0.0000000e+00 0.0000000e+00 0.0000000e+00 
-6.0074806e-04 0.0000000e+00 6.3136900e-03 
0.0000000e+00 0.0000000e+00 0.0000000e+00 
-6.0074806e-04 0.0000000e+00 6.3136900e-03 
0.0000000e+00 0.0000000e+00 0.0000000e+00 
-6.3657732e-04 0.0000000e+00 6.7822223e-03 
0.0000000e+00 0.0000000e+00 0.0000000e+00 
-6.3657732e-04 0.0000000e+00 6.7822223e-03 
0.0000000e+00 0.0000000e+00 0.0000000e+00 
0.0000000e+00 0.0000000e+00 0.0000000e+00 
-6.7032784e-04 0.0000000e+00 7.2400304e-03 
-6.7032784e-04 0.0000000e+00 7.2400304e-03 
0.0000000e+00 0.0000000e+00 0.0000000e+00 
0.0000000e+00 0.0000000e+00 0.0000000e+00 
-7.0221219e-04 0.0000000e+00 7.6880233e-03 
-7.0221219e-04 0.0000000e+00 7.6880233e-03 
0.0000000e+00 0.0000000e+00 0.0000000e+00 
0.0000000e+00 0.0000000e+00 0.0000000e+00 
-7.3225216e-04 0.0000000e+00 8.1260883e-03 
-7.3225216e-04 0.0000000e+00 8.1260883e-03 
0.0000000e+00 0.0000000e+00 0.0000000e+00 
0.0000000e+00 0.0000000e+00 0.0000000e+00 
-7.6033447e-04 0.0000000e+00 8.5533601e-03 
-7.6033447e-04 0.0000000e+00 8.5533601e-03 
0.0000000e+00 0.0000000e+00 0.0000000e+00 
0.0000000e+00 0.0000000e+00 0.0000000e+00 
-7.8663071e-04 0.0000000e+00 8.9705786e-03 
0.0000000e+00 0.0000000e+00 0.0000000e+00 
-7.8663071e-04 0.0000000e+00 8.9705786e-03 
0.0000000e+00 0.0000000e+00 0.0000000e+00 
-8.1150852e-04 0.0000000e+00 9.3796664e-03 
0.0000000e+00 0.0000000e+00 0.0000000e+00 
-8.1150852e-04 0.0000000e+00 9.3796664e-03 
0.0000000e+00 0.0000000e+00 0.0000000e+00 
-8.3506164e-04 0.0000000e+00 9.7810058e-03 
0.0000000e+00 0.0000000e+00 0.0000000e+00 
-8.3506164e-04 0.0000000e+00 9.7810058e-03 
0.0000000e+00 0.0000000e+00 0.0000000e+00 
0.0000000e+00 0.0000000e+00 0.0000000e+00 
-8.5722255e-04 0.0000000e+00 1.0174032e-02 
0.0000000e+00 0.0000000e+00 0.0000000e+00 
-8.5722255e-04 0.0000000e+00 1.0174032e-02 
0.0000000e+00 0.0000000e+00 0.0000000e+00 
-8.7818546e-04 0.0000000e+00 1.0559786e-02 
0.0000000e+00 0.0000000e+00 0.0000000e+00 
-8.7818546e-04 0.0000000e+00 1.0559786e-02 
0.0000000e+00 0.0000000e+00 0.0000000e+00 
0.0000000e+00 0.0000000e+00 0.0000000e+00 
-8.9829903e-04 0.0000000e+00 1.0940322e-02 
-8.9829903e-04 0.0000000e+00 1.0940322e-02 
0.0000000e+00 0.0000000e+00 0.0000000e+00 
0.0000000e+00 0.0000000e+00 0.0000000e+00 
-9.1761765e-04 0.0000000e+00 1.1315895e-02 
-9.1761765e-04 0.0000000e+00 1.1315895e-02 
0.0000000e+00 0.0000000e+00 0.0000000e+00 
0.0000000e+00 0.0000000e+00 0.0000000e+00 
-9.3601403e-04 0.0000000e+00 1.1685617e-02 
-9.3601403e-04 0.0000000e+00 1.1685617e-02 
0.0000000e+00 0.0000000e+00 0.0000000e+00 
0.0000000e+00 0.0000000e+00 0.0000000e+00 
-9.5359401e-04 0.0000000e+00 1.2050100e-02 
-9.5359401e-04 0.0000000e+00 1.2050100e-02 
0.0000000e+00 0.0000000e+00 0.0000000e+00 
0.0000000e+00 0.0000000e+00 0.0000000e+00 
-9.7060100e-04 0.0000000e+00 1.2410874e-02 
-9.7060100e-04 0.0000000e+00 1.2410874e-02 
0.0000000e+00 0.0000000e+00 0.0000000e+00 
0.0000000e+00 0.0000000e+00 0.0000000e+00 
-9.8703958e-04 0.0000000e+00 1.2767918e-02 
0.0000000e+00 0.0000000e+00 0.0000000e+00 
-9.8703958e-04 0.0000000e+00 1.2767918e-02 
0.0000000e+00 0.0000000e+00 0.0000000e+00 
-3.6591505e-05 0.0000000e+00 6.9399499e-04 
-1.0027479e-03 0.0000000e+00 1.3120105e-02 
-3.6591505e-05 0.0000000e+00 6.9399499e-04 
-1.0027479e-03 0.0000000e+00 1.3120105e-02 
-6.7649580e-05 0.0000000e+00 1.4191216e-03 
-1.0176701e-03 0.0000000e+00 1.3467010e-02 
-6.7649580e-05 0.0000000e+00 1.4191216e-03 
-1.0176701e-03 0.0000000e+00 1.3467010e-02 
-9.4989562e-05 0.0000000e+00 2.1432819e-03 
-9.4989562e-05 0.0000000e+00 2.1432819e-03 
-1.0318030e-03 0.0000000e+00 1.3808546e-02 
-1.0318030e-03 0.0000000e+00 1.3808546e-02 
-1.1951163e-04 0.0000000e+00 2.8535606e-03 
-1.1951163e-04 0.0000000e+00 2.8535606e-03 
-1.0450665e-03 0.0000000e+00 1.4144056e-02 
-1.0450665e-03 0.0000000e+00 1.4144056e-02 
-1.4113498e-04 0.0000000e+00 3.5491907e-03 
-1.4113498e-04 0.0000000e+00 3.5491907e-03 
-1.0573655e-03 0.0000000e+00 1.4472753e-02 
-1.0573655e-03 0.0000000e+00 1.4472753e-02 
-1.5973508e-04 0.0000000e+00 4.2291070e-03 
-1.5973508e-04 0.0000000e+00 4.2291070e-03 
-1.0686596e-03 0.0000000e+00 1.4794226e-02 
-1.0686596e-03 0.0000000e+00 1.4794226e-02 
-1.7528384e-04 0.0000000e+00 4.8926155e-03 
-1.7528384e-04 0.0000000e+00 4.8926155e-03 
-1.0788721e-03 0.0000000e+00 1.5107770e-02 
-1.0788721e-03 0.0000000e+00 1.5107770e-02 
-1.8790954e-04 0.0000000e+00 5.5398375e-03 
-1.8790954e-04 0.0000000e+00 5.5398375e-03 
-1.0879403e-03 0.0000000e+00 1.5412714e-02 
-1.9787604e-04 0.0000000e+00 6.1716568e-03 
-1.0879403e-03 0.0000000e+00 1.5412714e-02 
-1.9787604e-04 0.0000000e+00 6.1716568e-03 
-2.0547387e-04 0.0000000e+00 6.7892280e-03 
-1.0958790e-03 0.0000000e+00 1.5708935e-02 
-2.0547387e-04 0.0000000e+00 6.7892280e-03 
-1.0958790e-03 0.0000000e+00 1.5708935e-02 
-2.1088648e-04 0.0000000e+00 7.3931857e-03 
-1.1026726e-03 0.0000000e+00 1.5996088e-02 
-2.1088648e-04 0.0000000e+00 7.3931857e-03 
-1.1026726e-03 0.0000000e+00 1.5996088e-02 
-2.1424339e-04 0.0000000e+00 7.9838818e-03 
-2.1424339e-04 0.0000000e+00 7.9838818e-03 
-1.1082692e-03 0.0000000e+00 1.6273503e-02 
-1.1082692e-03 0.0000000e+00 1.6273503e-02 
-2.1567268e-04 0.0000000e+00 8.5616933e-03 
-2.1567268e-04 0.0000000e+00 8.5616933e-03 
-1.1126846e-03 0.0000000e+00 1.6540994e-02 
-1.1126846e-03 0.0000000e+00 1.6540994e-02 
-2.1530601e-04 0.0000000e+00 9.1270562e-03 
-2.1530601e-04 0.0000000e+00 9.1270562e-03 
-1.1159878e-03 0.0000000e+00 1.6798817e-02 
-1.1159878e-03 0.0000000e+00 1.6798817e-02 
-2.1325587e-04 0.0000000e+00 9.6803361e-03 
-2.1325587e-04 0.0000000e+00 9.6803361e-03 
-1.1182073e-03 0.0000000e+00 1.7046926e-02 
-1.1182073e-03 0.0000000e+00 1.7046926e-02 
-2.0958512e-04 0.0000000e+00 1.0221555e-02 
-2.0958512e-04 0.0000000e+00 1.0221555e-02 
-1.1193285e-03 0.0000000e+00 1.7284861e-02 
-1.1193285e-03 0.0000000e+00 1.7284861e-02 
-2.0422430e-04 0.0000000e+00 1.0749697e-02 
-2.0422430e-04 0.0000000e+00 1.0749697e-02 
-1.1193850e-03 0.0000000e+00 1.7512561e-02 
-1.1193850e-03 0.0000000e+00 1.7512561e-02 
-1.9701879e-04 0.0000000e+00 1.1262911e-02 
-1.9701879e-04 0.0000000e+00 1.1262911e-02 
-1.1184635e-03 0.0000000e+00 1.7730495e-02 
-1.1184635e-03 0.0000000e+00 1.7730495e-02 
-1.8802488e-04 0.0000000e+00 1.1760921e-02 
-1.8802488e-04 0.0000000e+00 1.1760921e-02 
-1.1165923e-03 0.0000000e+00 1.7938596e-02 
-1.7743597e-04 0.0000000e+00 1.2244669e-02 
-1.1165923e-03 0.0000000e+00 1.7938596e-02 
-1.7743597e-04 0.0000000e+00 1.2244669e-02 
-1.1137656e-03 0.0000000e+00 1.8136412e-02 
-1.6532588e-04 0.0000000e+00 1.2714070e-02 
-1.1137656e-03 0.0000000e+00 1.8136412e-02 
-1.6532588e-04 0.0000000e+00 1.2714070e-02 
-1.5171148e-04 0.0000000e+00 1.3168458e-02 
-1.1100451e-03 0.0000000e+00 1.8324184e-02 
-1.5171148e-04 0.0000000e+00 1.3168458e-02 
-1.1100451e-03 0.0000000e+00 1.8324184e-02 
-1.3673785e-04 0.0000000e+00 1.3608452e-02 
-1.3673785e-04 0.0000000e+00 1.3608452e-02 
-1.1055139e-03 0.0000000e+00 1.8502440e-02 
-1.1055139e-03 0.0000000e+00 1.8502440e-02 
-1.2061566e-04 0.0000000e+00 1.4035559e-02 
-1.2061566e-04 0.0000000e+00 1.4035559e-02 
-1.1001655e-03 0.0000000e+00 1.8670680e-02 
-1.1001655e-03 0.0000000e+00 1.8670680e-02 
-1.0347259e-04 0.0000000e+00 1.4450529e-02 
-1.0347259e-04 0.0000000e+00 1.4450529e-02 
-1.0939594e-03 0.0000000e+00 1.8827894e-02 
-1.0939594e-03 0.0000000e+00 1.8827894e-02 
-8.5403390e-05 0.0000000e+00 1.4853835e-02 
-8.5403390e-05 0.0000000e+00 1.4853835e-02 
-1.0869510e-03 0.0000000e+00 1.8974217e-02 
-1.0869510e-03 0.0000000e+00 1.8974217e-02 
-6.6525713e-05 0.0000000e+00 1.5246358e-02 
-6.6525713e-05 0.0000000e+00 1.5246358e-02 
-1.0792352e-03 0.0000000e+00 1.9110396e-02 
-1.0792352e-03 0.0000000e+00 1.9110396e-02 
-4.6938710e-05 0.0000000e+00 1.5628876e-02 
-4.6938710e-05 0.0000000e+00 1.5628876e-02 
-1.0707949e-03 0.0000000e+00 1.9235576e-02 
-1.0707949e-03 0.0000000e+00 1.9235576e-02 
-2.6665701e-05 0.0000000e+00 1.6001118e-02 
-2.6665701e-05 0.0000000e+00 1.6001118e-02 
-1.0615631e-03 0.0000000e+00 1.9347885e-02 
-1.0615631e-03 0.0000000e+00 1.9347885e-02 
-5.7033313e-06 0.0000000e+00 1.6362313e-02 
-5.7033313e-06 0.0000000e+00 1.6362313e-02 
-1.0515989e-03 0.0000000e+00 1.9447276e-02 
-1.0515989e-03 0.0000000e+00 1.9447276e-02 
1.5887746e-05 0.0000000e+00 1.6712706e-02 
1.5887746e-05 0.0000000e+00 1.6712706e-02 
-1.0410232e-03 0.0000000e+00 1.9534925e-02 
-1.0410232e-03 0.0000000e+00 1.9534925e-02 
3.8029327e-05 0.0000000e+00 1.7052926e-02 
3.8029327e-05 0.0000000e+00 1.7052926e-02 
-1.0298503e-03 0.0000000e+00 1.9610029e-02 
-1.0298503e-03 0.0000000e+00 1.9610029e-02 
6.0733132e-05 0.0000000e+00 1.7381865e-02 
6.0733132e-05 0.0000000e+00 1.7381865e-02 
-1.0180357e-03 0.0000000e+00 1.9670070e-02 
-1.0180357e-03 0.0000000e+00 1.9670070e-02 
8.4042143e-05 0.0000000e+00 1.7697354e-02 
8.4042143e-05 0.0000000e+00 1.7697354e-02 
-1.0056412e-03 0.0000000e+00 1.9714446e-02 
1.0795196e-04 0.0000000e+00 1.7997661e-02 
-1.0056412e-03 0.0000000e+00 1.9714446e-02 
1.0795196e-04 0.0000000e+00 1.7997661e-02 
1.3242638e-04 0.0000000e+00 1.8281120e-02 
-9.9279862e-04 0.0000000e+00 1.9744646e-02 
1.3242638e-04 0.0000000e+00 1.8281120e-02 
-9.9279862e-04 0.0000000e+00 1.9744646e-02 
1.5738359e-04 0.0000000e+00 1.8546504e-02 
-9.7957357e-04 0.0000000e+00 1.9760343e-02 
1.5738359e-04 0.0000000e+00 1.8546504e-02 
-9.7957357e-04 0.0000000e+00 1.9760343e-02 
1.8271476e-04 0.0000000e+00 1.8792724e-02 
1.8271476e-04 0.0000000e+00 1.8792724e-02 
-9.6599962e-04 0.0000000e+00 1.9759162e-02 
-9.6599962e-04 0.0000000e+00 1.9759162e-02 
2.0829681e-04 0.0000000e+00 1.9018073e-02 
2.0829681e-04 0.0000000e+00 1.9018073e-02 
-9.5217425e-04 0.0000000e+00 1.9740514e-02 
-9.5217425e-04 0.0000000e+00 1.9740514e-02 
2.3396768e-04 0.0000000e+00 1.9221010e-02 
2.3396768e-04 0.0000000e+00 1.9221010e-02 
-9.3821616e-04 0.0000000e+00 1.9705804e-02 
-9.3821616e-04 0.0000000e+00 1.9705804e-02 
2.5953862e-04 0.0000000e+00 1.9401672e-02 
2.5953862e-04 0.0000000e+00 1.9401672e-02 
-9.2421949e-04 0.0000000e+00 1.9654856e-02 
-9.2421949e-04 0.0000000e+00 1.9654856e-02 
2.8483532e-04 0.0000000e+00 1.9560858e-02 
2.8483532e-04 0.0000000e+00 1.9560858e-02 
-9.1029426e-04 0.0000000e+00 1.9585592e-02 
-9.1029426e-04 0.0000000e+00 1.9585592e-02 
3.0965454e-04 0.0000000e+00 1.9697305e-02 
3.0965454e-04 0.0000000e+00 1.9697305e-02 
-8.9656833e-04 0.0000000e+00 1.9497438e-02 
-8.9656833e-04 0.0000000e+00 1.9497438e-02 
3.3373815e-04 0.0000000e+00 1.9809076e-02 
3.3373815e-04 0.0000000e+00 1.9809076e-02 
-8.8314205e-04 0.0000000e+00 1.9391736e-02 
-8.8314205e-04 0.0000000e+00 1.9391736e-02 
3.5692476e-04 0.0000000e+00 1.9897819e-02 
3.5692476e-04 0.0000000e+00 1.9897819e-02 
-8.7011725e-04 0.0000000e+00 1.9268874e-02 
-8.7011725e-04 0.0000000e+00 1.9268874e-02 
3.7919083e-04 0.0000000e+00 1.9967076e-02 
3.7919083e-04 0.0000000e+00 1.9967076e-02 
-8.5762895e-04 0.0000000e+00 1.9128005e-02 
-8.5762895e-04 0.0000000e+00 1.9128005e-02 
4.0039957e-04 0.0000000e+00 2.0016933e-02 
4.0039957e-04 0.0000000e+00 2.0016933e-02 
-8.4579087e-04 0.0000000e+00 1.8969233e-02 
-8.4579087e-04 0.0000000e+00 1.8969233e-02 
4.2030126e-04 0.0000000e+00 2.0045724e-02 
4.2030126e-04 0.0000000e+00 2.0045724e-02 
-8.3466564e-04 0.0000000e+00 1.8793741e-02 
-8.3466564e-04 0.0000000e+00 1.8793741e-02 
4.3886553e-04 0.0000000e+00 2.0055351e-02 
4.3886553e-04 0.0000000e+00 2.0055351e-02 
-8.2431616e-04 0.0000000e+00 1.8602286e-02 
-8.2431616e-04 0.0000000e+00 1.8602286e-02 
4.5628830e-04 0.0000000e+00 2.0050046e-02 
4.5628830e-04 0.0000000e+00 2.0050046e-02 
-8.1481756e-04 0.0000000e+00 1.8395185e-02 
-8.1481756e-04 0.0000000e+00 1.8395185e-02 
4.7254312e-04 0.0000000e+00 2.0031517e-02 
4.7254312e-04 0.0000000e+00 2.0031517e-02 
-8.0619506e-04 0.0000000e+00 1.8172348e-02 
-8.0619506e-04 0.0000000e+00 1.8172348e-02 
4.9046642e-04 0.0000000e+00 1.9991114e-02 
4.9046642e-04 0.0000000e+00 1.9991114e-02 
-7.9706187e-04 0.0000000e+00 1.7886334e-02 
-7.9706187e-04 0.0000000e+00 1.7886334e-02 
5.0996720e-04 0.0000000e+00 1.9921043e-02 
5.0996720e-04 0.0000000e+00 1.9921043e-02 
-7.8777163e-04 0.0000000e+00 1.7519631e-02 
-7.8777163e-04 0.0000000e+00 1.7519631e-02 
5.3159418e-04 0.0000000e+00 1.9818862e-02 
5.3159418e-04 0.0000000e+00 1.9818862e-02 
-7.7890804e-04 0.0000000e+00 1.7055906e-02 
-7.7890804e-04 0.0000000e+00 1.7055906e-02 
5.5300066e-04 0.0000000e+00 1.9697563e-02 
5.5300066e-04 0.0000000e+00 1.9697563e-02 
-7.7246807e-04 0.0000000e+00 1.6563104e-02 
-7.7246807e-04 0.0000000e+00 1.6563104e-02 
5.7313027e-04 0.0000000e+00 1.9564022e-02 
5.7313027e-04 0.0000000e+00 1.9564022e-02 
-7.6866763e-04 0.0000000e+00 1.6040901e-02 
-7.6866763e-04 0.0000000e+00 1.6040901e-02 
5.9212038e-04 0.0000000e+00 1.9419822e-02 
5.9212038e-04 0.0000000e+00 1.9419822e-02 
-7.6703203e-04 0.0000000e+00 1.5495974e-02 
-7.6703203e-04 0.0000000e+00 1.5495974e-02 
6.0998717e-04 0.0000000e+00 1.9265371e-02 
6.0998717e-04 0.0000000e+00 1.9265371e-02 
-7.6644085e-04 0.0000000e+00 1.4940456e-02 
-7.6644085e-04 0.0000000e+00 1.4940456e-02 
6.2684801e-04 0.0000000e+00 1.9101941e-02 
6.2684801e-04 0.0000000e+00 1.9101941e-02 
-7.6651264e-04 0.0000000e+00 1.4378372e-02 
-7.6651264e-04 0.0000000e+00 1.4378372e-02 
6.4290702e-04 0.0000000e+00 1.8931467e-02 
6.4290702e-04 0.0000000e+00 1.8931467e-02 
-7.6760919e-04 0.0000000e+00 1.3806327e-02 
-7.6760919e-04 0.0000000e+00 1.3806327e-02 
6.5790271e-04 0.0000000e+00 1.8751796e-02 
6.5790271e-04 0.0000000e+00 1.8751796e-02 
-7.6927031e-04 0.0000000e+00 1.3228878e-02 
-7.6927031e-04 0.0000000e+00 1.3228878e-02 