# vtk DataFile Version 4.0
vtk output
ASCII
DATASET UNSTRUCTURED_GRID
POINTS 824 float
-6.4148600e-05 1.0000000e-02 -4.4525366e-03 
-1.0680180e-04 1.0000000e-02 -2.8088474e-03 
3.4513260e-04 1.0000000e-02 -6.0450544e-03 
1.3803532e-03 1.0000000e-02 -7.3230534e-03 
6.5829700e-05 1.0000000e-02 -1.1736922e-03 
2.7142144e-03 1.0000000e-02 -8.2851896e-03 
5.0392030e-04 1.0000000e-02 6.5784910e-04 
4.1780764e-03 1.0000000e-02 -9.0342357e-03 
1.1628646e-03 1.0000000e-02 2.4220088e-03 
5.7070961e-03 1.0000000e-02 -9.6390187e-03 
2.0046218e-03 1.0000000e-02 4.1066196e-03 
7.2731595e-03 1.0000000e-02 -1.0140047e-02 
-6.4148600e-05 0.0000000e+00 -4.4525366e-03 
-1.0680180e-04 0.0000000e+00 -2.8088474e-03 
3.4513260e-04 0.0000000e+00 -6.0450544e-03 
1.3803532e-03 0.0000000e+00 -7.3230534e-03 
6.5829700e-05 0.0000000e+00 -1.1736922e-03 
2.9952540e-03 1.0000000e-02 5.7082181e-03 
8.8622628e-03 1.0000000e-02 -1.0562311e-02 
2.7142144e-03 0.0000000e+00 -8.2851896e-03 
5.0392030e-04 0.0000000e+00 6.5784910e-04 
4.1780764e-03 0.0000000e+00 -9.0342357e-03 
1.1628646e-03 0.0000000e+00 2.4220088e-03 
1.0466628e-02 1.0000000e-02 -1.0922252e-02 
4.1067238e-03 1.0000000e-02 7.2284501e-03 
5.7070961e-03 0.0000000e+00 -9.6390187e-03 
2.0046218e-03 0.0000000e+00 4.1066196e-03 
7.2731595e-03 0.0000000e+00 -1.0140047e-02 
1.2081579e-02 1.0000000e-02 -1.1231240e-02 
5.3166988e-03 1.0000000e-02 8.6715129e-03 
2.9952540e-03 0.0000000e+00 5.7082181e-03 
8.8622628e-03 0.0000000e+00 -1.0562311e-02 
1.3704120e-02 1.0000000e-02 -1.1497501e-02 
1.0466628e-02 0.0000000e+00 -1.0922252e-02 
4.1067238e-03 0.0000000e+00 7.2284501e-03 
6.6076374e-03 1.0000000e-02 1.0042624e-02 
1.5332244e-02 1.0000000e-02 -1.1727173e-02 
1.2081579e-02 0.0000000e+00 -1.1231240e-02 
5.3166988e-03 0.0000000e+00 8.6715129e-03 
7.9658343e-03 1.0000000e-02 1.1347144e-02 
1.3704120e-02 0.0000000e+00 -1.1497501e-02 
1.6964543e-02 1.0000000e-02 -1.1925002e-02 
6.6076374e-03 0.0000000e+00 1.0042624e-02 
9.3804686e-03 1.0000000e-02 1.2590236e-02 
1.5332244e-02 0.0000000e+00 -1.1727173e-02 
1.8600004e-02 1.0000000e-02 -1.2094716e-02 
7.9658343e-03 0.0000000e+00 1.1347144e-02 
1.6964543e-02 0.0000000e+00 -1.1925002e-02 
1.0843002e-02 1.0000000e-02 1.3776601e-02 
2.0237876e-02 1.0000000e-02 -1.2239318e-02 
9.3804686e-03 0.0000000e+00 1.2590236e-02 
1.8600004e-02 0.0000000e+00 -1.2094716e-02 
1.2346566e-02 1.0000000e-02 1.4910517e-02 
2.1877591e-02 1.0000000e-02 -1.2361246e-02 
1.0843002e-02 0.0000000e+00 1.3776601e-02 
2.0237876e-02 0.0000000e+00 -1.2239318e-02 
1.3885623e-02 1.0000000e-02 1.5995768e-02 
2.3518711e-02 1.0000000e-02 -1.2462540e-02 
1.2346566e-02 0.0000000e+00 1.4910517e-02 
2.1877591e-02 0.0000000e+00 -1.2361246e-02 
2.5160890e-02 1.0000000e-02 -1.2544903e-02 
1.5455654e-02 1.0000000e-02 1.7035707e-02 
1.3885623e-02 0.0000000e+00 1.5995768e-02 
2.3518711e-02 0.0000000e+00 -1.2462540e-02 
2.6803852e-02 1.0000000e-02 -1.2609772e-02 
1.7052912e-02 1.0000000e-02 1.8033321e-02 
2.5160890e-02 0.0000000e+00 -1.2544903e-02 
1.5455654e-02 0.0000000e+00 1.7035707e-02 
2.8447376e-02 1.0000000e-02 -1.2658389e-02 
2.6803852e-02 0.0000000e+00 -1.2609772e-02 
1.7052912e-02 0.0000000e+00 1.8033321e-02 
1.8674284e-02 1.0000000e-02 1.8991246e-02 
3.0091279e-02 1.0000000e-02 -1.2691814e-02 
2.8447376e-02 0.0000000e+00 -1.2658389e-02 
1.8674284e-02 0.0000000e+00 1.8991246e-02 
2.0317149e-02 1.0000000e-02 1.9911822e-02 
3.0091279e-02 0.0000000e+00 -1.2691814e-02 
3.1735410e-02 1.0000000e-02 -1.2710971e-02 
2.0317149e-02 0.0000000e+00 1.9911822e-02 
2.1979295e-02 1.0000000e-02 2.0797113e-02 
3.1735410e-02 0.0000000e+00 -1.2710971e-02 
3.3379643e-02 1.0000000e-02 -1.2716676e-02 
2.1979295e-02 0.0000000e+00 2.0797113e-02 
2.3658832e-02 1.0000000e-02 2.1648949e-02 
3.3379643e-02 0.0000000e+00 -1.2716676e-02 
3.5023871e-02 1.0000000e-02 -1.2709629e-02 
2.3658832e-02 0.0000000e+00 2.1648949e-02 
2.5354100e-02 1.0000000e-02 2.2469029e-02 
3.5023871e-02 0.0000000e+00 -1.2709629e-02 
3.6668001e-02 1.0000000e-02 -1.2690457e-02 
2.5354100e-02 0.0000000e+00 2.2469029e-02 
2.7063712e-02 1.0000000e-02 2.3258772e-02 
3.6668001e-02 0.0000000e+00 -1.2690457e-02 
3.8312016e-02 1.0000000e-02 -1.2663038e-02 
2.7063712e-02 0.0000000e+00 2.3258772e-02 
3.8312016e-02 0.0000000e+00 -1.2663038e-02 
2.8786417e-02 1.0000000e-02 2.4019532e-02 
3.9956032e-02 1.0000000e-02 -1.2635752e-02 
2.8786417e-02 0.0000000e+00 2.4019532e-02 
3.9956032e-02 0.0000000e+00 -1.2635752e-02 
3.0521135e-02 1.0000000e-02 2.4752486e-02 
4.1600048e-02 1.0000000e-02 -1.2608467e-02 
3.0521135e-02 0.0000000e+00 2.4752486e-02 
4.1600048e-02 0.0000000e+00 -1.2608467e-02 
3.2266919e-02 1.0000000e-02 2.5458676e-02 
4.3299814e-02 1.0000000e-02 -1.2580255e-02 
3.2266919e-02 0.0000000e+00 2.5458676e-02 
4.3299814e-02 0.0000000e+00 -1.2580255e-02 
3.4022902e-02 1.0000000e-02 2.6139111e-02 
4.5339533e-02 1.0000000e-02 -1.2546402e-02 
3.4022902e-02 0.0000000e+00 2.6139111e-02 
4.5339533e-02 0.0000000e+00 -1.2546402e-02 
3.5788340e-02 1.0000000e-02 2.6794623e-02 
4.7787196e-02 1.0000000e-02 -1.2505778e-02 
3.5788340e-02 0.0000000e+00 2.6794623e-02 
3.7562554e-02 1.0000000e-02 2.7425996e-02 
4.7787196e-02 0.0000000e+00 -1.2505778e-02 
3.7562554e-02 0.0000000e+00 2.7425996e-02 
3.9344928e-02 1.0000000e-02 2.8033950e-02 
5.0379113e-02 1.0000000e-02 -1.2462760e-02 
3.9344928e-02 0.0000000e+00 2.8033950e-02 
5.0379113e-02 0.0000000e+00 -1.2462760e-02 
4.1134916e-02 1.0000000e-02 2.8619109e-02 
5.2971029e-02 1.0000000e-02 -1.2419741e-02 
4.1134916e-02 0.0000000e+00 2.8619109e-02 
5.2971029e-02 0.0000000e+00 -1.2419741e-02 
4.2932026e-02 1.0000000e-02 2.9182016e-02 
4.2932026e-02 0.0000000e+00 2.9182016e-02 
5.5562946e-02 1.0000000e-02 -1.2376723e-02 
4.5339682e-02 1.0000000e-02 2.9899231e-02 
5.5562946e-02 0.0000000e+00 -1.2376723e-02 
4.5339682e-02 0.0000000e+00 2.9899231e-02 
5.8154863e-02 1.0000000e-02 -1.2333705e-02 
4.7758221e-02 1.0000000e-02 3.0578844e-02 
5.8154863e-02 0.0000000e+00 -1.2333705e-02 
4.7758221e-02 0.0000000e+00 3.0578844e-02 
6.0746779e-02 1.0000000e-02 -1.2290686e-02 
5.0186760e-02 1.0000000e-02 3.1221807e-02 
6.0746779e-02 0.0000000e+00 -1.2290686e-02 
5.0186760e-02 0.0000000e+00 3.1221807e-02 
6.3338696e-02 1.0000000e-02 -1.2247668e-02 
5.2624513e-02 1.0000000e-02 3.1828903e-02 
6.3338696e-02 0.0000000e+00 -1.2247668e-02 
5.2624513e-02 0.0000000e+00 3.1828903e-02 
5.5070762e-02 1.0000000e-02 3.2400804e-02 
6.5930613e-02 1.0000000e-02 -1.2204650e-02 
5.5070762e-02 0.0000000e+00 3.2400804e-02 
6.5930613e-02 0.0000000e+00 -1.2204650e-02 
5.7524847e-02 1.0000000e-02 3.2938082e-02 
6.8522529e-02 1.0000000e-02 -1.2161631e-02 
5.7524847e-02 0.0000000e+00 3.2938082e-02 
6.8522529e-02 0.0000000e+00 -1.2161631e-02 
5.9986169e-02 1.0000000e-02 3.3441170e-02 
7.1114446e-02 1.0000000e-02 -1.2118613e-02 
5.9986169e-02 0.0000000e+00 3.3441170e-02 
7.1114446e-02 0.0000000e+00 -1.2118613e-02 
6.2454163e-02 1.0000000e-02 3.3910436e-02 
6.2454163e-02 0.0000000e+00 3.3910436e-02 
7.3706362e-02 1.0000000e-02 -1.2075595e-02 
7.3706362e-02 0.0000000e+00 -1.2075595e-02 
6.4928303e-02 1.0000000e-02 3.4346139e-02 
6.4928303e-02 0.0000000e+00 3.4346139e-02 
7.6298279e-02 1.0000000e-02 -1.2032577e-02 
7.6298279e-02 0.0000000e+00 -1.2032577e-02 
6.7408092e-02 1.0000000e-02 3.4748446e-02 
6.7408092e-02 0.0000000e+00 3.4748446e-02 
7.8890196e-02 1.0000000e-02 -1.1989558e-02 
7.8890196e-02 0.0000000e+00 -1.1989558e-02 
6.9893057e-02 1.0000000e-02 3.5117436e-02 
6.9893057e-02 0.0000000e+00 3.5117436e-02 
8.1482112e-02 1.0000000e-02 -1.1946540e-02 
8.1482112e-02 0.0000000e+00 -1.1946540e-02 
7.2382742e-02 1.0000000e-02 3.5453098e-02 
7.2382742e-02 0.0000000e+00 3.5453098e-02 
8.4074029e-02 1.0000000e-02 -1.1903522e-02 
7.4876707e-02 1.0000000e-02 3.5755332e-02 
8.4074029e-02 0.0000000e+00 -1.1903522e-02 
7.4876707e-02 0.0000000e+00 3.5755332e-02 
8.6665946e-02 1.0000000e-02 -1.1860503e-02 
7.7374516e-02 1.0000000e-02 3.6023948e-02 
8.6665946e-02 0.0000000e+00 -1.1860503e-02 
7.7374516e-02 0.0000000e+00 3.6023948e-02 
8.9257862e-02 1.0000000e-02 -1.1817485e-02 
7.9875738e-02 1.0000000e-02 3.6258665e-02 
8.9257862e-02 0.0000000e+00 -1.1817485e-02 
7.9875738e-02 0.0000000e+00 3.6258665e-02 
8.2379940e-02 1.0000000e-02 3.6459105e-02 
9.1849779e-02 1.0000000e-02 -1.1774467e-02 
8.2379940e-02 0.0000000e+00 3.6459105e-02 
9.1849779e-02 0.0000000e+00 -1.1774467e-02 
8.4886681e-02 1.0000000e-02 3.6624786e-02 
9.4441696e-02 1.0000000e-02 -1.1731448e-02 
8.4886681e-02 0.0000000e+00 3.6624786e-02 
9.4441696e-02 0.0000000e+00 -1.1731448e-02 
8.7395510e-02 1.0000000e-02 3.6755108e-02 
8.7395510e-02 0.0000000e+00 3.6755108e-02 
9.7033612e-02 1.0000000e-02 -1.1688430e-02 
9.7033612e-02 0.0000000e+00 -1.1688430e-02 
8.9905951e-02 1.0000000e-02 3.6849401e-02 
8.9905951e-02 0.0000000e+00 3.6849401e-02 
9.9625529e-02 1.0000000e-02 -1.1645412e-02 
9.9625529e-02 0.0000000e+00 -1.1645412e-02 
9.2417505e-02 1.0000000e-02 3.6906832e-02 
9.2417505e-02 0.0000000e+00 3.6906832e-02 
1.0221745e-01 1.0000000e-02 -1.1602393e-02 
1.0221745e-01 0.0000000e+00 -1.1602393e-02 
9.4929640e-02 1.0000000e-02 3.6926425e-02 
9.4929640e-02 0.0000000e+00 3.6926425e-02 
1.0480936e-01 1.0000000e-02 -1.1559375e-02 
1.0480936e-01 0.0000000e+00 -1.1559375e-02 
9.7441776e-02 1.0000000e-02 3.6907077e-02 
9.7441776e-02 0.0000000e+00 3.6907077e-02 
1.0740128e-01 1.0000000e-02 -1.1516357e-02 
1.0740128e-01 0.0000000e+00 -1.1516357e-02 
9.9953281e-02 1.0000000e-02 3.6847529e-02 
9.9953281e-02 0.0000000e+00 3.6847529e-02 
1.0999320e-01 1.0000000e-02 -1.1473339e-02 
1.0246345e-01 1.0000000e-02 3.6746314e-02 
1.0999320e-01 0.0000000e+00 -1.1473339e-02 
1.0246345e-01 0.0000000e+00 3.6746314e-02 
1.0497150e-01 1.0000000e-02 3.6601738e-02 
1.1258511e-01 1.0000000e-02 -1.1430320e-02 
1.0497150e-01 0.0000000e+00 3.6601738e-02 
1.1258511e-01 0.0000000e+00 -1.1430320e-02 
1.0747666e-01 1.0000000e-02 3.6413638e-02 
1.1517703e-01 1.0000000e-02 -1.1387302e-02 
1.0747666e-01 0.0000000e+00 3.6413638e-02 
[...]
POINT_DATA 824
FIELD FieldData 2
DISPLACEMENT 3 824  float
0.0000000e+00 0.0000000e+00 0.0000000e+00 
0.0000000e+00 0.0000000e+00 0.0000000e+00 
0.0000000e+00 0.0000000e+00 0.0000000e+00 
0.0000000e+00 0.0000000e+00 0.0000000e+00 
0.0000000e+00 0.0000000e+00 0.0000000e+00 
0.0000000e+00 0.0000000e+00 0.0000000e+00 
0.0000000e+00 0.0000000e+00 0.0000000e+00 
0.0000000e+00 0.0000000e+00 0.0000000e+00 
0.0000000e+00 0.0000000e+00 0.0000000e+00 
0.0000000e+00 0.0000000e+00 0.0000000e+00 
0.0000000e+00 0.0000000e+00 0.0000000e+00 
0.0000000e+00 0.0000000e+00 0.0000000e+00 
0.0000000e+00 0.0000000e+00 0.0000000e+00 
0.0000000e+00 0.0000000e+00 0.0000000e+00 
0.0000000e+00 0.0000000e+00 0.0000000e+00 
0.0000000e+00 0.0000000e+00 0.0000000e+00 
0.0000000e+00 0.0000000e+00 0.0000000e+00 
0.0000000e+00 0.0000000e+00 0.0000000e+00 
0.0000000e+00 0.0000000e+00 0.0000000e+00 
0.0000000e+00 0.0000000e+00 0.0000000e+00 
0.0000000e+00 0.0000000e+00 0.0000000e+00 
0.0000000e+00 0.0000000e+00 0.0000000e+00 
0.0000000e+00 0.0000000e+00 0.0000000e+00 
0.0000000e+00 0.0000000e+00 0.0000000e+00 
0.0000000e+00 0.0000000e+00 0.0000000e+00 
0.0000000e+00 0.0000000e+00 0.0000000e+00 
0.0000000e+00 0.0000000e+00 0.0000000e+00 
0.0000000e+00 0.0000000e+00 0.0000000e+00 
0.0000000e+00 0.0000000e+00 0.0000000e+00 
0.0000000e+00 0.0000000e+00 0.0000000e+00 
0.0000000e+00 0.0000000e+00 0.0000000e+00 
0.0000000e+00 0.0000000e+00 0.0000000e+00 
0.0000000e+00 0.0000000e+00 0.0000000e+00 
0.0000000e+00 0.0000000e+00 0.0000000e+00 
0.0000000e+00 0.0000000e+00 0.0000000e+00 
0.0000000e+00 0.0000000e+00 0.0000000e+00 
0.0000000e+00 0.0000000e+00 0.0000000e+00 
0.0000000e+00 0.0000000e+00 0.0000000e+00 
0.0000000e+00 0.0000000e+00 0.0000000e+00 
0.0000000e+00 0.0000000e+00 0.0000000e+00 
0.0000000e+00 0.0000000e+00 0.0000000e+00 
0.0000000e+00 0.0000000e+00 0.0000000e+00 
0.0000000e+00 0.0000000e+00 0.0000000e+00 
0.0000000e+00 0.0000000e+00 0.0000000e+00 
0.0000000e+00 0.0000000e+00 0.0000000e+00 
0.0000000e+00 0.0000000e+00 0.0000000e+00 
0.0000000e+00 0.0000000e+00 0.0000000e+00 
0.0000000e+00 0.0000000e+00 0.0000000e+00 
0.0000000e+00 0.0000000e+00 0.0000000e+00 
0.0000000e+00 0.0000000e+00 0.0000000e+00 
0.0000000e+00 0.0000000e+00 0.0000000e+00 
0.0000000e+00 0.0000000e+00 0.0000000e+00 
0.0000000e+00 0.0000000e+00 0.0000000e+00 
0.0000000e+00 0.0000000e+00 0.0000000e+00 
0.0000000e+00 0.0000000e+00 0.0000000e+00 
0.0000000e+00 0.0000000e+00 0.0000000e+00 
0.0000000e+00 0.0000000e+00 0.0000000e+00 
0.0000000e+00 0.0000000e+00 0.0000000e+00 
0.0000000e+00 0.0000000e+00 0.0000000e+00 
0.0000000e+00 0.0000000e+00 0.0000000e+00 
0.0000000e+00 0.0000000e+00 0.0000000e+00 
0.0000000e+00 0.0000000e+00 0.0000000e+00 
0.0000000e+00 0.0000000e+00 0.0000000e+00 
0.0000000e+00 0.0000000e+00 0.0000000e+00 
0.0000000e+00 0.0000000e+00 0.0000000e+00 
0.0000000e+00 0.0000000e+00 0.0000000e+00 
0.0000000e+00 0.0000000e+00 0.0000000e+00 
0.0000000e+00 0.0000000e+00 0.0000000e+00 
0.0000000e+00 0.0000000e+00 0.0000000e+00 
0.0000000e+00 0.0000000e+00 0.0000000e+00 
0.0000000e+00 0.0000000e+00 0.0000000e+00 
0.0000000e+00 0.0000000e+00 0.0000000e+00 
0.0000000e+00 0.0000000e+00 0.0000000e+00 
0.0000000e+00 0.0000000e+00 0.0000000e+00 
0.0000000e+00 0.0000000e+00 0.0000000e+00 
0.0000000e+00 0.0000000e+00 0.0000000e+00 
0.0000000e+00 0.0000000e+00 0.0000000e+00 
0.0000000e+00 0.0000000e+00 0.0000000e+00 
0.0000000e+00 0.0000000e+00 0.0000000e+00 
0.0000000e+00 0.0000000e+00 0.0000000e+00 
0.0000000e+00 0.0000000e+00 0.0000000e+00 
0.0000000e+00 0.0000000e+00 0.0000000e+00 
0.0000000e+00 0.0000000e+00 0.0000000e+00 
0.0000000e+00 0.0000000e+00 0.0000000e+00 
0.0000000e+00 0.0000000e+00 0.0000000e+00 
0.0000000e+00 0.0000000e+00 0.0000000e+00 
0.0000000e+00 0.0000000e+00 0.0000000e+00 
0.0000000e+00 0.0000000e+00 0.0000000e+00 
0.0000000e+00 0.0000000e+00 0.0000000e+00 
0.0000000e+00 0.0000000e+00 0.0000000e+00 
0.0000000e+00 0.0000000e+00 0.0000000e+00 
0.0000000e+00 0.0000000e+00 0.0000000e+00 
0.0000000e+00 0.0000000e+00 0.0000000e+00 
0.0000000e+00 0.0000000e+00 0.0000000e+00 
0.0000000e+00 0.0000000e+00 0.0000000e+00 
0.0000000e+00 0.0000000e+00 0.0000000e+00 
0.0000000e+00 0.0000000e+00 0.0000000e+00 
-2.0355430e-05 0.0000000e+00 2.6873565e-04 
0.0000000e+00 0.0000000e+00 0.0000000e+00 
-2.0355430e-05 0.0000000e+00 2.6873565e-04 
0.0000000e+00 0.0000000e+00 0.0000000e+00 
-4.0186790e-05 0.0000000e+00 5.3436914e-04 
0.0000000e+00 0.0000000e+00 0.0000000e+00 
-4.0186790e-05 0.0000000e+00 5.3436914e-04 
0.0000000e+00 0.0000000e+00 0.0000000e+00 
-6.0147477e-05 0.0000000e+00 8.0575770e-04 
0.0000000e+00 0.0000000e+00 0.0000000e+00 
-6.0147477e-05 0.0000000e+00 8.0575770e-04 
0.0000000e+00 0.0000000e+00 0.0000000e+00 
-8.3383601e-05 0.0000000e+00 1.1270850e-03 
0.0000000e+00 0.0000000e+00 0.0000000e+00 
-8.3383601e-05 0.0000000e+00 1.1270850e-03 
0.0000000e+00 0.0000000e+00 0.0000000e+00 
-1.1025300e-04 0.0000000e+00 1.5064530e-03 
0.0000000e+00 0.0000000e+00 0.0000000e+00 
0.0000000e+00 0.0000000e+00 0.0000000e+00 
-1.1025300e-04 0.0000000e+00 1.5064530e-03 
0.0000000e+00 0.0000000e+00 0.0000000e+00 
0.0000000e+00 0.0000000e+00 0.0000000e+00 
-1.3752707e-04 0.0000000e+00 1.9008262e-03 
0.0000000e+00 0.0000000e+00 0.0000000e+00 
-1.3752707e-04 0.0000000e+00 1.9008262e-03 
0.0000000e+00 0.0000000e+00 0.0000000e+00 
-1.6361988e-04 0.0000000e+00 2.2877024e-03 
0.0000000e+00 0.0000000e+00 0.0000000e+00 
-1.6361988e-04 0.0000000e+00 2.2877024e-03 
0.0000000e+00 0.0000000e+00 0.0000000e+00 
0.0000000e+00 0.0000000e+00 0.0000000e+00 
-1.8856337e-04 0.0000000e+00 2.6671572e-03 
0.0000000e+00 0.0000000e+00 0.0000000e+00 
-1.8856337e-04 0.0000000e+00 2.6671572e-03 
0.0000000e+00 0.0000000e+00 0.0000000e+00 
-2.1238905e-04 0.0000000e+00 3.0392640e-03 
0.0000000e+00 0.0000000e+00 0.0000000e+00 
-2.1238905e-04 0.0000000e+00 3.0392640e-03 
0.0000000e+00 0.0000000e+00 0.0000000e+00 
-2.3512784e-04 0.0000000e+00 3.4040968e-03 
0.0000000e+00 0.0000000e+00 0.0000000e+00 
-2.3512784e-04 0.0000000e+00 3.4040968e-03 
0.0000000e+00 0.0000000e+00 0.0000000e+00 
-2.5681007e-04 0.0000000e+00 3.7617326e-03 
0.0000000e+00 0.0000000e+00 0.0000000e+00 
-2.5681007e-04 0.0000000e+00 3.7617326e-03 
0.0000000e+00 0.0000000e+00 0.0000000e+00 
0.0000000e+00 0.0000000e+00 0.0000000e+00 
-2.7746526e-04 0.0000000e+00 4.1122441e-03 
0.0000000e+00 0.0000000e+00 0.0000000e+00 
-2.7746526e-04 0.0000000e+00 4.1122441e-03 
0.0000000e+00 0.0000000e+00 0.0000000e+00 
-2.9712221e-04 0.0000000e+00 4.4557031e-03 
0.0000000e+00 0.0000000e+00 0.0000000e+00 
-2.9712221e-04 0.0000000e+00 4.4557031e-03 
0.0000000e+00 0.0000000e+00 0.0000000e+00 
-3.1580903e-04 0.0000000e+00 4.7921836e-03 
0.0000000e+00 0.0000000e+00 0.0000000e+00 
-3.1580903e-04 0.0000000e+00 4.7921836e-03 
0.0000000e+00 0.0000000e+00 0.0000000e+00 
0.0000000e+00 0.0000000e+00 0.0000000e+00 
-3.3355300e-04 0.0000000e+00 5.1217545e-03 
-3.3355300e-04 0.0000000e+00 5.1217545e-03 
0.0000000e+00 0.0000000e+00 0.0000000e+00 
0.0000000e+00 0.0000000e+00 0.0000000e+00 
-3.5038074e-04 0.0000000e+00 5.4444851e-03 
-3.5038074e-04 0.0000000e+00 5.4444851e-03 
0.0000000e+00 0.0000000e+00 0.0000000e+00 
0.0000000e+00 0.0000000e+00 0.0000000e+00 
-3.6631809e-04 0.0000000e+00 5.7604419e-03 
-3.6631809e-04 0.0000000e+00 5.7604419e-03 
0.0000000e+00 0.0000000e+00 0.0000000e+00 
0.0000000e+00 0.0000000e+00 0.0000000e+00 
-3.8139026e-04 0.0000000e+00 6.0696929e-03 
-3.8139026e-04 0.0000000e+00 6.0696929e-03 
0.0000000e+00 0.0000000e+00 0.0000000e+00 
0.0000000e+00 0.0000000e+00 0.0000000e+00 
-3.9562177e-04 0.0000000e+00 6.3723022e-03 
0.0000000e+00 0.0000000e+00 0.0000000e+00 
-3.9562177e-04 0.0000000e+00 6.3723022e-03 
0.0000000e+00 0.0000000e+00 0.0000000e+00 
-4.0903644e-04 0.0000000e+00 6.6683321e-03 
0.0000000e+00 0.0000000e+00 0.0000000e+00 
-4.0903644e-04 0.0000000e+00 6.6683321e-03 
0.0000000e+00 0.0000000e+00 0.0000000e+00 
-4.2165755e-04 0.0000000e+00 6.9578465e-03 
0.0000000e+00 0.0000000e+00 0.0000000e+00 
-4.2165755e-04 0.0000000e+00 6.9578465e-03 
0.0000000e+00 0.0000000e+00 0.0000000e+00 
0.0000000e+00 0.0000000e+00 0.0000000e+00 
-4.3350772e-04 0.0000000e+00 7.2409055e-03 
0.0000000e+00 0.0000000e+00 0.0000000e+00 
-4.3350772e-04 0.0000000e+00 7.2409055e-03 
0.0000000e+00 0.0000000e+00 0.0000000e+00 
-4.4460897e-04 0.0000000e+00 7.5175675e-03 
0.0000000e+00 0.0000000e+00 0.0000000e+00 
-4.4460897e-04 0.0000000e+00 7.5175675e-03 
0.0000000e+00 0.0000000e+00 0.0000000e+00 
0.0000000e+00 0.0000000e+00 0.0000000e+00 
-4.5498281e-04 0.0000000e+00 7.7878929e-03 
-4.5498281e-04 0.0000000e+00 7.7878929e-03 
0.0000000e+00 0.0000000e+00 0.0000000e+00 
0.0000000e+00 0.0000000e+00 0.0000000e+00 
-4.6465018e-04 0.0000000e+00 8.0519380e-03 
-4.6465018e-04 0.0000000e+00 8.0519380e-03 
0.0000000e+00 0.0000000e+00 0.0000000e+00 
0.0000000e+00 0.0000000e+00 0.0000000e+00 
-4.7363148e-04 0.0000000e+00 8.3097582e-03 
-4.7363148e-04 0.0000000e+00 8.3097582e-03 
0.0000000e+00 0.0000000e+00 0.0000000e+00 
0.0000000e+00 0.0000000e+00 0.0000000e+00 
-4.8194660e-04 0.0000000e+00 8.5614088e-03 
-4.8194660e-04 0.0000000e+00 8.5614088e-03 
0.0000000e+00 0.0000000e+00 0.0000000e+00 
0.0000000e+00 0.0000000e+00 0.0000000e+00 
-4.8961503e-04 0.0000000e+00 8.8069451e-03 
-4.8961503e-04 0.0000000e+00 8.8069451e-03 
0.0000000e+00 0.0000000e+00 0.0000000e+00 
0.0000000e+00 0.0000000e+00 0.0000000e+00 
-4.9665569e-04 0.0000000e+00 9.0464188e-03 
0.0000000e+00 0.0000000e+00 0.0000000e+00 
-4.9665569e-04 0.0000000e+00 9.0464188e-03 
0.0000000e+00 0.0000000e+00 0.0000000e+00 
-2.1434912e-05 0.0000000e+00 6.1872681e-04 
-5.0308703e-04 0.0000000e+00 9.2798799e-03 
-2.1434912e-05 0.0000000e+00 6.1872681e-04 
-5.0308703e-04 0.0000000e+00 9.2798799e-03 
-3.6351237e-05 0.0000000e+00 1.2591171e-03 
-5.0892720e-04 0.0000000e+00 9.5073835e-03 
-3.6351237e-05 0.0000000e+00 1.2591171e-03 
-5.0892720e-04 0.0000000e+00 9.5073835e-03 
-4.7060864e-05 0.0000000e+00 1.8911232e-03 
-4.7060864e-05 0.0000000e+00 1.8911232e-03 
-5.1419380e-04 0.0000000e+00 9.7289775e-03 
-5.1419380e-04 0.0000000e+00 9.7289775e-03 
-5.4854454e-05 0.0000000e+00 2.5036134e-03 
-5.4854454e-05 0.0000000e+00 2.5036134e-03 
-5.1890403e-04 0.0000000e+00 9.9447092e-03 
-5.1890403e-04 0.0000000e+00 9.9447092e-03 
-6.0001588e-05 0.0000000e+00 3.0975004e-03 
-6.0001588e-05 0.0000000e+00 3.0975004e-03 
-5.2307478e-04 0.0000000e+00 1.0154631e-02 
-5.2307478e-04 0.0000000e+00 1.0154631e-02 
-6.2725481e-05 0.0000000e+00 3.6735033e-03 
-6.2725481e-05 0.0000000e+00 3.6735033e-03 
-5.2672248e-04 0.0000000e+00 1.0358788e-02 
-5.2672248e-04 0.0000000e+00 1.0358788e-02 
-6.3224256e-05 0.0000000e+00 4.2322463e-03 
-6.3224256e-05 0.0000000e+00 4.2322463e-03 
-5.2986318e-04 0.0000000e+00 1.0557226e-02 
-5.2986318e-04 0.0000000e+00 1.0557226e-02 
-6.1676123e-05 0.0000000e+00 4.7743006e-03 
-6.1676123e-05 0.0000000e+00 4.7743006e-03 
-5.3251264e-04 0.0000000e+00 1.0749995e-02 
-5.8242725e-05 0.0000000e+00 5.3001751e-03 
-5.3251264e-04 0.0000000e+00 1.0749995e-02 
-5.8242725e-05 0.0000000e+00 5.3001751e-03 
-5.3071542e-05 0.0000000e+00 5.8103440e-03 
-5.3468623e-04 0.0000000e+00 1.0937137e-02 
-5.3071542e-05 0.0000000e+00 5.8103440e-03 
-5.3468623e-04 0.0000000e+00 1.0937137e-02 
-4.6298355e-05 0.0000000e+00 6.3052412e-03 
-5.3639895e-04 0.0000000e+00 1.1118696e-02 
-4.6298355e-05 0.0000000e+00 6.3052412e-03 
-5.3639895e-04 0.0000000e+00 1.1118696e-02 
-3.8048165e-05 0.0000000e+00 6.7852694e-03 
-3.8048165e-05 0.0000000e+00 6.7852694e-03 
-5.3766552e-04 0.0000000e+00 1.1294718e-02 
-5.3766552e-04 0.0000000e+00 1.1294718e-02 
-2.8436964e-05 0.0000000e+00 7.2508099e-03 
-2.8436964e-05 0.0000000e+00 7.2508099e-03 
-5.3850036e-04 0.0000000e+00 1.1465246e-02 
-5.3850036e-04 0.0000000e+00 1.1465246e-02 
-1.7572756e-05 0.0000000e+00 7.7022133e-03 
-1.7572756e-05 0.0000000e+00 7.7022133e-03 
-5.3891751e-04 0.0000000e+00 1.1630321e-02 
-5.3891751e-04 0.0000000e+00 1.1630321e-02 
-5.5560716e-06 0.0000000e+00 8.1398182e-03 
-5.5560716e-06 0.0000000e+00 8.1398182e-03 
-5.3893076e-04 0.0000000e+00 1.1789987e-02 
-5.3893076e-04 0.0000000e+00 1.1789987e-02 
7.5188352e-06 0.0000000e+00 8.5639376e-03 
7.5188352e-06 0.0000000e+00 8.5639376e-03 
-5.3855362e-04 0.0000000e+00 1.1944285e-02 
-5.3855362e-04 0.0000000e+00 1.1944285e-02 
2.1563885e-05 0.0000000e+00 8.9748750e-03 
2.1563885e-05 0.0000000e+00 8.9748750e-03 
-5.3779927e-04 0.0000000e+00 1.2093255e-02 
-5.3779927e-04 0.0000000e+00 1.2093255e-02 
3.6496062e-05 0.0000000e+00 9.3729157e-03 
3.6496062e-05 0.0000000e+00 9.3729157e-03 
-5.3668064e-04 0.0000000e+00 1.2236937e-02 
-5.3668064e-04 0.0000000e+00 1.2236937e-02 
5.2237518e-05 0.0000000e+00 9.7583321e-03 
5.2237518e-05 0.0000000e+00 9.7583321e-03 
-5.3521041e-04 0.0000000e+00 1.2375373e-02 
6.8714904e-05 0.0000000e+00 1.0131388e-02 
-5.3521041e-04 0.0000000e+00 1.2375373e-02 
6.8714904e-05 0.0000000e+00 1.0131388e-02 
-5.3340098e-04 0.0000000e+00 1.2508600e-02 
8.5858786e-05 0.0000000e+00 1.0492331e-02 
-5.3340098e-04 0.0000000e+00 1.2508600e-02 
8.5858786e-05 0.0000000e+00 1.0492331e-02 
1.0360391e-04 0.0000000e+00 1.0841405e-02 
-5.3126447e-04 0.0000000e+00 1.2636658e-02 
1.0360391e-04 0.0000000e+00 1.0841405e-02 
-5.3126447e-04 0.0000000e+00 1.2636658e-02 
1.2188823e-04 0.0000000e+00 1.1178837e-02 
1.2188823e-04 0.0000000e+00 1.1178837e-02 
-5.2881278e-04 0.0000000e+00 1.2759584e-02 
-5.2881278e-04 0.0000000e+00 1.2759584e-02 
1.4065339e-04 0.0000000e+00 1.1504853e-02 
1.4065339e-04 0.0000000e+00 1.1504853e-02 
-5.2605761e-04 0.0000000e+00 1.2877417e-02 
-5.2605761e-04 0.0000000e+00 1.2877417e-02 
1.5984377e-04 0.0000000e+00 1.1819667e-02 
1.5984377e-04 0.0000000e+00 1.1819667e-02 
-5.2301033e-04 0.0000000e+00 1.2990194e-02 
-5.2301033e-04 0.0000000e+00 1.2990194e-02 
1.7940696e-04 0.0000000e+00 1.2123488e-02 
1.7940696e-04 0.0000000e+00 1.2123488e-02 
-5.1968213e-04 0.0000000e+00 1.3097951e-02 
-5.1968213e-04 0.0000000e+00 1.3097951e-02 
1.9929296e-04 0.0000000e+00 1.2416514e-02 
1.9929296e-04 0.0000000e+00 1.2416514e-02 
-5.1608402e-04 0.0000000e+00 1.3200726e-02 
-5.1608402e-04 0.0000000e+00 1.3200726e-02 
2.1945451e-04 0.0000000e+00 1.2698941e-02 
2.1945451e-04 0.0000000e+00 1.2698941e-02 
-5.1222671e-04 0.0000000e+00 1.3298555e-02 
-5.1222671e-04 0.0000000e+00 1.3298555e-02 
2.3984680e-04 0.0000000e+00 1.2970958e-02 
2.3984680e-04 0.0000000e+00 1.2970958e-02 
-5.0812074e-04 0.0000000e+00 1.3391472e-02 
-5.0812074e-04 0.0000000e+00 1.3391472e-02 
2.6042694e-04 0.0000000e+00 1.3232746e-02 
2.6042694e-04 0.0000000e+00 1.3232746e-02 
-5.0377646e-04 0.0000000e+00 1.3479513e-02 
-5.0377646e-04 0.0000000e+00 1.3479513e-02 
2.8115457e-04 0.0000000e+00 1.3484484e-02 
2.8115457e-04 0.0000000e+00 1.3484484e-02 
-4.9920395e-04 0.0000000e+00 1.3562714e-02 
-4.9920395e-04 0.0000000e+00 1.3562714e-02 
3.0199098e-04 0.0000000e+00 1.3726344e-02 
3.0199098e-04 0.0000000e+00 1.3726344e-02 
-4.9441314e-04 0.0000000e+00 1.3641108e-02 
-4.9441314e-04 0.0000000e+00 1.3641108e-02 
3.2289965e-04 0.0000000e+00 1.3958493e-02 
3.2289965e-04 0.0000000e+00 1.3958493e-02 
-4.8941380e-04 0.0000000e+00 1.3714730e-02 
-4.8941380e-04 0.0000000e+00 1.3714730e-02 
3.4384558e-04 0.0000000e+00 1.4181095e-02 
3.4384558e-04 0.0000000e+00 1.4181095e-02 
-4.8421541e-04 0.0000000e+00 1.3783614e-02 
3.6479573e-04 0.0000000e+00 1.4394309e-02 
-4.8421541e-04 0.0000000e+00 1.3783614e-02 
3.6479573e-04 0.0000000e+00 1.4394309e-02 
3.8571845e-04 0.0000000e+00 1.4598288e-02 
-4.7882735e-04 0.0000000e+00 1.3847793e-02 
3.8571845e-04 0.0000000e+00 1.4598288e-02 
-4.7882735e-04 0.0000000e+00 1.3847793e-02 
4.0658375e-04 0.0000000e+00 1.4793185e-02 
-4.7325877e-04 0.0000000e+00 1.3907299e-02 
4.0658375e-04 0.0000000e+00 1.4793185e-02 
-4.7325877e-04 0.0000000e+00 1.3907299e-02 
4.2736320e-04 0.0000000e+00 1.4979149e-02 
4.2736320e-04 0.0000000e+00 1.4979149e-02 
-4.6751866e-04 0.0000000e+00 1.3962167e-02 
-4.6751866e-04 0.0000000e+00 1.3962167e-02 
4.4802950e-04 0.0000000e+00 1.5156320e-02 
4.4802950e-04 0.0000000e+00 1.5156320e-02 
-4.6161585e-04 0.0000000e+00 1.4012428e-02 
-4.6161585e-04 0.0000000e+00 1.4012428e-02 
4.6855694e-04 0.0000000e+00 1.5324843e-02 
4.6855694e-04 0.0000000e+00 1.5324843e-02 
-4.5555895e-04 0.0000000e+00 1.4058115e-02 
-4.5555895e-04 0.0000000e+00 1.4058115e-02 
4.8892083e-04 0.0000000e+00 1.5484852e-02 
4.8892083e-04 0.0000000e+00 1.5484852e-02 
-4.4935644e-04 0.0000000e+00 1.4099259e-02 
-4.4935644e-04 0.0000000e+00 1.4099259e-02 
5.0909794e-04 0.0000000e+00 1.5636484e-02 
5.0909794e-04 0.0000000e+00 1.5636484e-02 
-4.4301665e-04 0.0000000e+00 1.4135892e-02 
-4.4301665e-04 0.0000000e+00 1.4135892e-02 
5.2906596e-04 0.0000000e+00 1.5779868e-02 
5.2906596e-04 0.0000000e+00 1.5779868e-02 
-4.3654769e-04 0.0000000e+00 1.4168047e-02 
-4.3654769e-04 0.0000000e+00 1.4168047e-02 
5.4880382e-04 0.0000000e+00 1.5915135e-02 
5.4880382e-04 0.0000000e+00 1.5915135e-02 
-4.2995757e-04 0.0000000e+00 1.4195752e-02 
-4.2995757e-04 0.0000000e+00 1.4195752e-02 
5.6829160e-04 0.0000000e+00 1.6042412e-02 
5.6829160e-04 0.0000000e+00 1.6042412e-02 
-4.2325414e-04 0.0000000e+00 1.4219040e-02 
-4.2325414e-04 0.0000000e+00 1.4219040e-02 
5.8751009e-04 0.0000000e+00 1.6161820e-02 
5.8751009e-04 0.0000000e+00 1.6161820e-02 
-4.1644503e-04 0.0000000e+00 1.4237942e-02 
-4.1644503e-04 0.0000000e+00 1.4237942e-02 
6.0644139e-04 0.0000000e+00 1.6273482e-02 
6.0644139e-04 0.0000000e+00 1.6273482e-02 
-4.0953780e-04 0.0000000e+00 1.4252486e-02 
-4.0953780e-04 0.0000000e+00 1.4252486e-02 
6.2506827e-04 0.0000000e+00 1.6377517e-02 
6.2506827e-04 0.0000000e+00 1.6377517e-02 
-4.0253985e-04 0.0000000e+00 1.4262704e-02 
-4.0253985e-04 0.0000000e+00 1.4262704e-02 
6.4337450e-04 0.0000000e+00 1.6474040e-02 
6.4337450e-04 0.0000000e+00 1.6474040e-02 
-3.9545840e-04 0.0000000e+00 1.4268626e-02 
-3.9545840e-04 0.0000000e+00 1.4268626e-02 
6.6134440e-04 0.0000000e+00 1.6563161e-02 
6.6134440e-04 0.0000000e+00 1.6563161e-02 
-3.8830055e-04 0.0000000e+00 1.4270283e-02 
-3.8830055e-04 0.0000000e+00 1.4270283e-02 
6.7887927e-04 0.0000000e+00 1.6644623e-02 
6.7887927e-04 0.0000000e+00 1.6644623e-02 
-3.8105160e-04 0.0000000e+00 1.4267686e-02 
-3.8105160e-04 0.0000000e+00 1.4267686e-02 
6.9944532e-04 0.0000000e+00 1.6733031e-02 
6.9944532e-04 0.0000000e+00 1.6733031e-02 
-3.7227015e-04 0.0000000e+00 1.4258982e-02 
-3.7227015e-04 0.0000000e+00 1.4258982e-02 
7.2340943e-04 0.0000000e+00 1.6825887e-02 
7.2340943e-04 0.0000000e+00 1.6825887e-02 
-3.6162882e-04 0.0000000e+00 1.4240565e-02 
-3.6162882e-04 0.0000000e+00 1.4240565e-02 
7.5108876e-04 0.0000000e+00 1.6918651e-02 
7.5108876e-04 0.0000000e+00 1.6918651e-02 
-3.4886772e-04 0.0000000e+00 1.4207500e-02 
-3.4886772e-04 0.0000000e+00 1.4207500e-02 
7.7892385e-04 0.0000000e+00 1.6994899e-02 
7.7892385e-04 0.0000000e+00 1.6994899e-02 
-3.3600532e-04 0.0000000e+00 1.4162417e-02 
-3.3600532e-04 0.0000000e+00 1.4162417e-02 
8.0533578e-04 0.0000000e+00 1.7049682e-02 
8.0533578e-04 0.0000000e+00 1.7049682e-02 
-3.2307232e-04 0.0000000e+00 1.4105458e-02 
-3.2307232e-04 0.0000000e+00 1.4105458e-02 
8.3027341e-04 0.0000000e+00 1.7083588e-02 
8.3027341e-04 0.0000000e+00 1.7083588e-02 
-3.1009837e-04 0.0000000e+00 1.4036762e-02 
-3.1009837e-04 0.0000000e+00 1.4036762e-02 
8.5369119e-04 0.0000000e+00 1.7097179e-02 
8.5369119e-04 0.0000000e+00 1.7097179e-02 
-2.9711205e-04 0.0000000e+00 1.3956470e-02 
-2.9711205e-04 0.0000000e+00 1.3956470e-02 
8.7554902e-04 0.0000000e+00 1.7091002e-02 
8.7554902e-04 0.0000000e+00 1.7091002e-02 
-2.8414102e-04 0.0000000e+00 1.3864717e-02 
-2.8414102e-04 0.0000000e+00 1.3864717e-02 
8.9581244e-04 0.0000000e+00 1.7065590e-02 
8.9581244e-04 0.0000000e+00 1.7065590e-02 
-2.7121190e-04 0.0000000e+00 1.3761641e-02 
-2.7121190e-04 0.0000000e+00 1.3761641e-02 
9.1445173e-04 0.0000000e+00 1.7021462e-02 
9.1445173e-04 0.0000000e+00 1.7021462e-02 
-2.5835037e-04 0.0000000e+00 1.3647377e-02 
-2.5835037e-04 0.0000000e+00 1.3647377e-02 
9.3144221e-04 0.0000000e+00 1.6959127e-02 