# vtk DataFile Version 4.0
vtk output
ASCII
DATASET UNSTRUCTURED_GRID
POINTS 824 float
-6.4148600e-05 1.0000000e-02 -4.4525366e-03 
-1.0680180e-04 1.0000000e-02 -2.8088474e-03 
3.4513260e-04 1.0000000e-02 -6.0450544e-03 
1.3803532e-03 1.0000000e-02 -7.3230534e-03 
6.5829700e-05 1.0000000e-02 -1.1736922e-03 
2.7142144e-03 1.0000000e-02 -8.2851896e-03 
5.0392030e-04 1.0000000e-02 6.5784910e-04 
4.1780764e-03 1.0000000e-02 -9.0342357e-03 
1.1628646e-03 1.0000000e-02 2.4220088e-03 
5.7070961e-03 1.0000000e-02 -9.6390187e-03 
2.0046218e-03 1.0000000e-02 4.1066196e-03 
7.2731595e-03 1.0000000e-02 -1.0140047e-02 
-6.4148600e-05 0.0000000e+00 -4.4525366e-03 
-1.0680180e-04 0.0000000e+00 -2.8088474e-03 
3.4513260e-04 0.0000000e+00 -6.0450544e-03 
1.3803532e-03 0.0000000e+00 -7.3230534e-03 
6.5829700e-05 0.0000000e+00 -1.1736922e-03 
2.9952540e-03 1.0000000e-02 5.7082181e-03 
8.8622628e-03 1.0000000e-02 -1.0562311e-02 
2.7142144e-03 0.0000000e+00 -8.2851896e-03 
5.0392030e-04 0.0000000e+00 6.5784910e-04 
4.1780764e-03 0.0000000e+00 -9.0342357e-03 
1.1628646e-03 0.0000000e+00 2.4220088e-03 
1.0466628e-02 1.0000000e-02 -1.0922252e-02 
4.1067238e-03 1.0000000e-02 7.2284501e-03 
5.7070961e-03 0.0000000e+00 -9.6390187e-03 
2.0046218e-03 0.0000000e+00 4.1066196e-03 
7.2731595e-03 0.0000000e+00 -1.0140047e-02 
1.2081579e-02 1.0000000e-02 -1.1231240e-02 
5.3166988e-03 1.0000000e-02 8.6715129e-03 
2.9952540e-03 0.0000000e+00 5.7082181e-03 
8.8622628e-03 0.0000000e+00 -1.0562311e-02 
1.3704120e-02 1.0000000e-02 -1.1497501e-02 
1.0466628e-02 0.0000000e+00 -1.0922252e-02 
4.1067238e-03 0.0000000e+00 7.2284501e-03 
6.6076374e-03 1.0000000e-02 1.0042624e-02 
1.5332244e-02 1.0000000e-02 -1.1727173e-02 
1.2081579e-02 0.0000000e+00 -1.1231240e-02 
5.3166988e-03 0.0000000e+00 8.6715129e-03 
7.9658343e-03 1.0000000e-02 1.1347144e-02 
1.3704120e-02 0.0000000e+00 -1.1497501e-02 
1.6964543e-02 1.0000000e-02 -1.1925002e-02 
6.6076374e-03 0.0000000e+00 1.0042624e-02 
9.3804686e-03 1.0000000e-02 1.2590236e-02 
1.5332244e-02 0.0000000e+00 -1.1727173e-02 
1.8600004e-02 1.0000000e-02 -1.2094716e-02 
7.9658343e-03 0.0000000e+00 1.1347144e-02 
1.6964543e-02 0.0000000e+00 -1.1925002e-02 
1.0843002e-02 1.0000000e-02 1.3776601e-02 
2.0237876e-02 1.0000000e-02 -1.2239318e-02 
9.3804686e-03 0.0000000e+00 1.2590236e-02 
1.8600004e-02 0.0000000e+00 -1.2094716e-02 
1.2346566e-02 1.0000000e-02 1.4910517e-02 
2.1877591e-02 1.0000000e-02 -1.2361246e-02 
1.0843002e-02 0.0000000e+00 1.3776601e-02 
2.0237876e-02 0.0000000e+00 -1.2239318e-02 
1.3885623e-02 1.0000000e-02 1.5995768e-02 
2.3518711e-02 1.0000000e-02 -1.2462540e-02 
1.2346566e-02 0.0000000e+00 1.4910517e-02 
2.1877591e-02 0.0000000e+00 -1.2361246e-02 
2.5160890e-02 1.0000000e-02 -1.2544903e-02 
1.5455654e-02 1.0000000e-02 1.7035707e-02 
1.3885623e-02 0.0000000e+00 1.5995768e-02 
2.3518711e-02 0.0000000e+00 -1.2462540e-02 
2.6803852e-02 1.0000000e-02 -1.2609772e-02 
1.7052912e-02 1.0000000e-02 1.8033321e-02 
2.5160890e-02 0.0000000e+00 -1.2544903e-02 
1.5455654e-02 0.0000000e+00 1.7035707e-02 
2.8447376e-02 1.0000000e-02 -1.2658389e-02 
2.6803852e-02 0.0000000e+00 -1.2609772e-02 
1.7052912e-02 0.0000000e+00 1.8033321e-02 
1.8674284e-02 1.0000000e-02 1.8991246e-02 
3.0091279e-02 1.0000000e-02 -1.2691814e-02 
2.8447376e-02 0.0000000e+00 -1.2658389e-02 
1.8674284e-02 0.0000000e+00 1.8991246e-02 
2.0317149e-02 1.0000000e-02 1.9911822e-02 
3.0091279e-02 0.0000000e+00 -1.2691814e-02 
3.1735410e-02 1.0000000e-02 -1.2710971e-02 
2.0317149e-02 0.0000000e+00 1.9911822e-02 
2.1979295e-02 1.0000000e-02 2.0797113e-02 
3.1735410e-02 0.0000000e+00 -1.2710971e-02 
3.3379643e-02 1.0000000e-02 -1.2716676e-02 
2.1979295e-02 0.0000000e+00 2.0797113e-02 
2.3658832e-02 1.0000000e-02 2.1648949e-02 
3.3379643e-02 0.0000000e+00 -1.2716676e-02 
3.5023871e-02 1.0000000e-02 -1.2709629e-02 
2.3658832e-02 0.0000000e+00 2.1648949e-02 
2.5354100e-02 1.0000000e-02 2.2469029e-02 
3.5023871e-02 0.0000000e+00 -1.2709629e-02 
3.6668001e-02 1.0000000e-02 -1.2690457e-02 
2.5354100e-02 0.0000000e+00 2.2469029e-02 
2.7063712e-02 1.0000000e-02 2.3258772e-02 
3.6668001e-02 0.0000000e+00 -1.2690457e-02 
3.8312016e-02 1.0000000e-02 -1.2663038e-02 
2.7063712e-02 0.0000000e+00 2.3258772e-02 
3.8312016e-02 0.0000000e+00 -1.2663038e-02 
2.8786417e-02 1.0000000e-02 2.4019532e-02 
3.9956032e-02 1.0000000e-02 -1.2635752e-02 
2.8786417e-02 0.0000000e+00 2.4019532e-02 
3.9956032e-02 0.0000000e+00 -1.2635752e-02 
3.0521135e-02 1.0000000e-02 2.4752486e-02 
4.1600048e-02 1.0000000e-02 -1.2608467e-02 
3.0521135e-02 0.0000000e+00 2.4752486e-02 
4.1600048e-02 0.0000000e+00 -1.2608467e-02 
3.2266919e-02 1.0000000e-02 2.5458676e-02 
4.3299814e-02 1.0000000e-02 -1.2580255e-02 
3.2266919e-02 0.0000000e+00 2.5458676e-02 
4.3299814e-02 0.0000000e+00 -1.2580255e-02 
3.4022902e-02 1.0000000e-02 2.6139111e-02 
4.5339533e-02 1.0000000e-02 -1.2546402e-02 
3.4022902e-02 0.0000000e+00 2.6139111e-02 
4.5339533e-02 0.0000000e+00 -1.2546402e-02 
3.5788340e-02 1.0000000e-02 2.6794623e-02 
4.7787196e-02 1.0000000e-02 -1.2505778e-02 
3.5788340e-02 0.0000000e+00 2.6794623e-02 
3.7562554e-02 1.0000000e-02 2.7425996e-02 
4.7787196e-02 0.0000000e+00 -1.2505778e-02 
3.7562554e-02 0.0000000e+00 2.7425996e-02 
3.9344928e-02 1.0000000e-02 2.8033950e-02 
5.0379113e-02 1.0000000e-02 -1.2462760e-02 
3.9344928e-02 0.0000000e+00 2.8033950e-02 
5.0379113e-02 0.0000000e+00 -1.2462760e-02 
4.1134916e-02 1.0000000e-02 2.8619109e-02 
5.2971029e-02 1.0000000e-02 -1.2419741e-02 
4.1134916e-02 0.0000000e+00 2.8619109e-02 
5.2971029e-02 0.0000000e+00 -1.2419741e-02 
4.2932026e-02 1.0000000e-02 2.9182016e-02 
4.2932026e-02 0.0000000e+00 2.9182016e-02 
5.5562946e-02 1.0000000e-02 -1.2376723e-02 
4.5339682e-02 1.0000000e-02 2.9899231e-02 
5.5562946e-02 0.0000000e+00 -1.2376723e-02 
4.5339682e-02 0.0000000e+00 2.9899231e-02 
5.8154863e-02 1.0000000e-02 -1.2333705e-02 
4.7758221e-02 1.0000000e-02 3.0578844e-02 
5.8154863e-02 0.0000000e+00 -1.2333705e-02 
4.7758221e-02 0.0000000e+00 3.0578844e-02 
6.0746779e-02 1.0000000e-02 -1.2290686e-02 
5.0186760e-02 1.0000000e-02 3.1221807e-02 
6.0746779e-02 0.0000000e+00 -1.2290686e-02 
5.0186760e-02 0.0000000e+00 3.1221807e-02 
6.3338696e-02 1.0000000e-02 -1.2247668e-02 
5.2624513e-02 1.0000000e-02 3.1828903e-02 
6.3338696e-02 0.0000000e+00 -1.2247668e-02 
5.2624513e-02 0.0000000e+00 3.1828903e-02 
5.5070762e-02 1.0000000e-02 3.2400804e-02 
6.5930613e-02 1.0000000e-02 -1.2204650e-02 
5.5070762e-02 0.0000000e+00 3.2400804e-02 
6.5930613e-02 0.0000000e+00 -1.2204650e-02 
5.7524847e-02 1.0000000e-02 3.2938082e-02 
6.8522529e-02 1.0000000e-02 -1.2161631e-02 
5.7524847e-02 0.0000000e+00 3.2938082e-02 
6.8522529e-02 0.0000000e+00 -1.2161631e-02 
5.9986169e-02 1.0000000e-02 3.3441170e-02 
7.1114446e-02 1.0000000e-02 -1.2118613e-02 
5.9986169e-02 0.0000000e+00 3.3441170e-02 
7.1114446e-02 0.0000000e+00 -1.2118613e-02 
6.2454163e-02 1.0000000e-02 3.3910436e-02 
6.2454163e-02 0.0000000e+00 3.3910436e-02 
7.3706362e-02 1.0000000e-02 -1.2075595e-02 
7.3706362e-02 0.0000000e+00 -1.2075595e-02 
6.4928303e-02 1.0000000e-02 3.4346139e-02 
6.4928303e-02 0.0000000e+00 3.4346139e-02 
7.6298279e-02 1.0000000e-02 -1.2032577e-02 
7.6298279e-02 0.0000000e+00 -1.2032577e-02 
6.7408092e-02 1.0000000e-02 3.4748446e-02 
6.7408092e-02 0.0000000e+00 3.4748446e-02 
7.8890196e-02 1.0000000e-02 -1.1989558e-02 
7.8890196e-02 0.0000000e+00 -1.1989558e-02 
6.9893057e-02 1.0000000e-02 3.5117436e-02 
6.9893057e-02 0.0000000e+00 3.5117436e-02 
8.1482112e-02 1.0000000e-02 -1.1946540e-02 
8.1482112e-02 0.0000000e+00 -1.1946540e-02 
7.2382742e-02 1.0000000e-02 3.5453098e-02 
7.2382742e-02 0.0000000e+00 3.5453098e-02 
8.4074029e-02 1.0000000e-02 -1.1903522e-02 
7.4876707e-02 1.0000000e-02 3.5755332e-02 
8.4074029e-02 0.0000000e+00 -1.1903522e-02 
7.4876707e-02 0.0000000e+00 3.5755332e-02 
8.6665946e-02 1.0000000e-02 -1.1860503e-02 
7.7374516e-02 1.0000000e-02 3.6023948e-02 
8.6665946e-02 0.0000000e+00 -1.1860503e-02 
7.7374516e-02 0.0000000e+00 3.6023948e-02 
8.9257862e-02 1.0000000e-02 -1.1817485e-02 
7.9875738e-02 1.0000000e-02 3.6258665e-02 
8.9257862e-02 0.0000000e+00 -1.1817485e-02 
7.9875738e-02 0.0000000e+00 3.6258665e-02 
8.2379940e-02 1.0000000e-02 3.6459105e-02 
9.1849779e-02 1.0000000e-02 -1.1774467e-02 
8.2379940e-02 0.0000000e+00 3.6459105e-02 
9.1849779e-02 0.0000000e+00 -1.1774467e-02 
8.4886681e-02 1.0000000e-02 3.6624786e-02 
9.4441696e-02 1.0000000e-02 -1.1731448e-02 
8.4886681e-02 0.0000000e+00 3.6624786e-02 
9.4441696e-02 0.0000000e+00 -1.1731448e-02 
8.7395510e-02 1.0000000e-02 3.6755108e-02 
8.7395510e-02 0.0000000e+00 3.6755108e-02 
9.7033612e-02 1.0000000e-02 -1.1688430e-02 
9.7033612e-02 0.0000000e+00 -1.1688430e-02 
8.9905951e-02 1.0000000e-02 3.6849401e-02 
8.9905951e-02 0.0000000e+00 3.6849401e-02 
9.9625529e-02 1.0000000e-02 -1.1645412e-02 
9.9625529e-02 0.0000000e+00 -1.1645412e-02 
9.2417505e-02 1.0000000e-02 3.6906832e-02 
9.2417505e-02 0.0000000e+00 3.6906832e-02 
1.0221745e-01 1.0000000e-02 -1.1602393e-02 
1.0221745e-01 0.0000000e+00 -1.1602393e-02 
9.4929640e-02 1.0000000e-02 3.6926425e-02 
9.4929640e-02 0.0000000e+00 3.6926425e-02 
1.0480936e-01 1.0000000e-02 -1.1559375e-02 
1.0480936e-01 0.0000000e+00 -1.1559375e-02 
9.7441776e-02 1.0000000e-02 3.6907077e-02 
9.7441776e-02 0.0000000e+00 3.6907077e-02 
1.0740128e-01 1.0000000e-02 -1.1516357e-02 
1.0740128e-01 0.0000000e+00 -1.1516357e-02 
9.9953281e-02 1.0000000e-02 3.6847529e-02 
9.9953281e-02 0.0000000e+00 3.6847529e-02 
1.0999320e-01 1.0000000e-02 -1.1473339e-02 
1.0246345e-01 1.0000000e-02 3.6746314e-02 
1.0999320e-01 0.0000000e+00 -1.1473339e-02 
1.0246345e-01 0.0000000e+00 3.6746314e-02 
1.0497150e-01 1.0000000e-02 3.6601738e-02 
1.1258511e-01 1.0000000e-02 -1.1430320e-02 
1.0497150e-01 0.0000000e+00 3.6601738e-02 
1.1258511e-01 0.0000000e+00 -1.1430320e-02 
1.0747666e-01 1.0000000e-02 3.6413638e-02 
1.1517703e-01 1.0000000e-02 -1.1387302e-02 
1.0747666e-01 0.0000000e+00 3.6413638e-02 
[...]
POINT_DATA 824
FIELD FieldData 2
DISPLACEMENT 3 824  float
0.0000000e+00 0.0000000e+00 0.0000000e+00 
0.0000000e+00 0.0000000e+00 0.0000000e+00 
0.0000000e+00 0.0000000e+00 0.0000000e+00 
0.0000000e+00 0.0000000e+00 0.0000000e+00 
0.0000000e+00 0.0000000e+00 0.0000000e+00 
0.0000000e+00 0.0000000e+00 0.0000000e+00 
0.0000000e+00 0.0000000e+00 0.0000000e+00 
0.0000000e+00 0.0000000e+00 0.0000000e+00 
0.0000000e+00 0.0000000e+00 0.0000000e+00 
0.0000000e+00 0.0000000e+00 0.0000000e+00 
0.0000000e+00 0.0000000e+00 0.0000000e+00 
0.0000000e+00 0.0000000e+00 0.0000000e+00 
0.0000000e+00 0.0000000e+00 0.0000000e+00 
0.0000000e+00 0.0000000e+00 0.0000000e+00 
0.0000000e+00 0.0000000e+00 0.0000000e+00 
0.0000000e+00 0.0000000e+00 0.0000000e+00 
0.0000000e+00 0.0000000e+00 0.0000000e+00 
0.0000000e+00 0.0000000e+00 0.0000000e+00 
0.0000000e+00 0.0000000e+00 0.0000000e+00 
0.0000000e+00 0.0000000e+00 0.0000000e+00 
0.0000000e+00 0.0000000e+00 0.0000000e+00 
0.0000000e+00 0.0000000e+00 0.0000000e+00 
0.0000000e+00 0.0000000e+00 0.0000000e+00 
0.0000000e+00 0.0000000e+00 0.0000000e+00 
0.0000000e+00 0.0000000e+00 0.0000000e+00 
0.0000000e+00 0.0000000e+00 0.0000000e+00 
0.0000000e+00 0.0000000e+00 0.0000000e+00 
0.0000000e+00 0.0000000e+00 0.0000000e+00 
0.0000000e+00 0.0000000e+00 0.0000000e+00 
0.0000000e+00 0.0000000e+00 0.0000000e+00 
0.0000000e+00 0.0000000e+00 0.0000000e+00 
0.0000000e+00 0.0000000e+00 0.0000000e+00 
0.0000000e+00 0.0000000e+00 0.0000000e+00 
0.0000000e+00 0.0000000e+00 0.0000000e+00 
0.0000000e+00 0.0000000e+00 0.0000000e+00 
0.0000000e+00 0.0000000e+00 0.0000000e+00 
0.0000000e+00 0.0000000e+00 0.0000000e+00 
0.0000000e+00 0.0000000e+00 0.0000000e+00 
0.0000000e+00 0.0000000e+00 0.0000000e+00 
0.0000000e+00 0.0000000e+00 0.0000000e+00 
0.0000000e+00 0.0000000e+00 0.0000000e+00 
0.0000000e+00 0.0000000e+00 0.0000000e+00 
0.0000000e+00 0.0000000e+00 0.0000000e+00 
0.0000000e+00 0.0000000e+00 0.0000000e+00 
0.0000000e+00 0.0000000e+00 0.0000000e+00 
0.0000000e+00 0.0000000e+00 0.0000000e+00 
0.0000000e+00 0.0000000e+00 0.0000000e+00 
0.0000000e+00 0.0000000e+00 0.0000000e+00 
0.0000000e+00 0.0000000e+00 0.0000000e+00 
0.0000000e+00 0.0000000e+00 0.0000000e+00 
0.0000000e+00 0.0000000e+00 0.0000000e+00 
0.0000000e+00 0.0000000e+00 0.0000000e+00 
0.0000000e+00 0.0000000e+00 0.0000000e+00 
0.0000000e+00 0.0000000e+00 0.0000000e+00 
0.0000000e+00 0.0000000e+00 0.0000000e+00 
0.0000000e+00 0.0000000e+00 0.0000000e+00 
0.0000000e+00 0.0000000e+00 0.0000000e+00 
0.0000000e+00 0.0000000e+00 0.0000000e+00 
0.0000000e+00 0.0000000e+00 0.0000000e+00 
0.0000000e+00 0.0000000e+00 0.0000000e+00 
0.0000000e+00 0.0000000e+00 0.0000000e+00 
0.0000000e+00 0.0000000e+00 0.0000000e+00 
0.0000000e+00 0.0000000e+00 0.0000000e+00 
0.0000000e+00 0.0000000e+00 0.0000000e+00 
0.0000000e+00 0.0000000e+00 0.0000000e+00 
0.0000000e+00 0.0000000e+00 0.0000000e+00 
0.0000000e+00 0.0000000e+00 0.0000000e+00 
0.0000000e+00 0.0000000e+00 0.0000000e+00 
0.0000000e+00 0.0000000e+00 0.0000000e+00 
0.0000000e+00 0.0000000e+00 0.0000000e+00 
0.0000000e+00 0.0000000e+00 0.0000000e+00 
0.0000000e+00 0.0000000e+00 0.0000000e+00 
0.0000000e+00 0.0000000e+00 0.0000000e+00 
0.0000000e+00 0.0000000e+00 0.0000000e+00 
0.0000000e+00 0.0000000e+00 0.0000000e+00 
0.0000000e+00 0.0000000e+00 0.0000000e+00 
0.0000000e+00 0.0000000e+00 0.0000000e+00 
0.0000000e+00 0.0000000e+00 0.0000000e+00 
0.0000000e+00 0.0000000e+00 0.0000000e+00 
0.0000000e+00 0.0000000e+00 0.0000000e+00 
0.0000000e+00 0.0000000e+00 0.0000000e+00 
0.0000000e+00 0.0000000e+00 0.0000000e+00 
0.0000000e+00 0.0000000e+00 0.0000000e+00 
0.0000000e+00 0.0000000e+00 0.0000000e+00 
0.0000000e+00 0.0000000e+00 0.0000000e+00 
0.0000000e+00 0.0000000e+00 0.0000000e+00 
0.0000000e+00 0.0000000e+00 0.0000000e+00 
0.0000000e+00 0.0000000e+00 0.0000000e+00 
0.0000000e+00 0.0000000e+00 0.0000000e+00 
0.0000000e+00 0.0000000e+00 0.0000000e+00 
0.0000000e+00 0.0000000e+00 0.0000000e+00 
0.0000000e+00 0.0000000e+00 0.0000000e+00 
0.0000000e+00 0.0000000e+00 0.0000000e+00 
0.0000000e+00 0.0000000e+00 0.0000000e+00 
0.0000000e+00 0.0000000e+00 0.0000000e+00 
0.0000000e+00 0.0000000e+00 0.0000000e+00 
0.0000000e+00 0.0000000e+00 0.0000000e+00 
1.8390237e-04 0.0000000e+00 -6.2018420e-04 
0.0000000e+00 0.0000000e+00 0.0000000e+00 
1.8390237e-04 0.0000000e+00 -6.2018420e-04 
0.0000000e+00 0.0000000e+00 0.0000000e+00 
3.6372461e-04 0.0000000e+00 -1.2539164e-03 
0.0000000e+00 0.0000000e+00 0.0000000e+00 
3.6372461e-04 0.0000000e+00 -1.2539164e-03 
0.0000000e+00 0.0000000e+00 0.0000000e+00 
5.4480330e-04 0.0000000e+00 -1.9247781e-03 
0.0000000e+00 0.0000000e+00 0.0000000e+00 
5.4480330e-04 0.0000000e+00 -1.9247781e-03 
0.0000000e+00 0.0000000e+00 0.0000000e+00 
7.5467828e-04 0.0000000e+00 -2.7530414e-03 
0.0000000e+00 0.0000000e+00 0.0000000e+00 
7.5467828e-04 0.0000000e+00 -2.7530414e-03 
0.0000000e+00 0.0000000e+00 0.0000000e+00 
9.9432657e-04 0.0000000e+00 -3.7833104e-03 
0.0000000e+00 0.0000000e+00 0.0000000e+00 
0.0000000e+00 0.0000000e+00 0.0000000e+00 
9.9432657e-04 0.0000000e+00 -3.7833104e-03 
0.0000000e+00 0.0000000e+00 0.0000000e+00 
0.0000000e+00 0.0000000e+00 0.0000000e+00 
1.2320664e-03 0.0000000e+00 -4.9196515e-03 
0.0000000e+00 0.0000000e+00 0.0000000e+00 
1.2320664e-03 0.0000000e+00 -4.9196515e-03 
0.0000000e+00 0.0000000e+00 0.0000000e+00 
1.4526626e-03 0.0000000e+00 -6.1024181e-03 
0.0000000e+00 0.0000000e+00 0.0000000e+00 
1.4526626e-03 0.0000000e+00 -6.1024181e-03 
0.0000000e+00 0.0000000e+00 0.0000000e+00 
0.0000000e+00 0.0000000e+00 0.0000000e+00 
1.6560514e-03 0.0000000e+00 -7.3299235e-03 
0.0000000e+00 0.0000000e+00 0.0000000e+00 
1.6560514e-03 0.0000000e+00 -7.3299235e-03 
0.0000000e+00 0.0000000e+00 0.0000000e+00 
1.8429548e-03 0.0000000e+00 -8.5991765e-03 
0.0000000e+00 0.0000000e+00 0.0000000e+00 
1.8429548e-03 0.0000000e+00 -8.5991765e-03 
0.0000000e+00 0.0000000e+00 0.0000000e+00 
2.0146255e-03 0.0000000e+00 -9.9062050e-03 
0.0000000e+00 0.0000000e+00 0.0000000e+00 
2.0146255e-03 0.0000000e+00 -9.9062050e-03 
0.0000000e+00 0.0000000e+00 0.0000000e+00 
2.1720700e-03 0.0000000e+00 -1.1247545e-02 
0.0000000e+00 0.0000000e+00 0.0000000e+00 
2.1720700e-03 0.0000000e+00 -1.1247545e-02 
0.0000000e+00 0.0000000e+00 0.0000000e+00 
0.0000000e+00 0.0000000e+00 0.0000000e+00 
2.3163214e-03 0.0000000e+00 -1.2619943e-02 
0.0000000e+00 0.0000000e+00 0.0000000e+00 
2.3163214e-03 0.0000000e+00 -1.2619943e-02 
0.0000000e+00 0.0000000e+00 0.0000000e+00 
2.4489042e-03 0.0000000e+00 -1.4019533e-02 
0.0000000e+00 0.0000000e+00 0.0000000e+00 
2.4489042e-03 0.0000000e+00 -1.4019533e-02 
0.0000000e+00 0.0000000e+00 0.0000000e+00 
2.5714267e-03 0.0000000e+00 -1.5442453e-02 
0.0000000e+00 0.0000000e+00 0.0000000e+00 
2.5714267e-03 0.0000000e+00 -1.5442453e-02 
0.0000000e+00 0.0000000e+00 0.0000000e+00 
0.0000000e+00 0.0000000e+00 0.0000000e+00 
2.6849936e-03 0.0000000e+00 -1.6885838e-02 
2.6849936e-03 0.0000000e+00 -1.6885838e-02 
0.0000000e+00 0.0000000e+00 0.0000000e+00 
0.0000000e+00 0.0000000e+00 0.0000000e+00 
2.7905018e-03 0.0000000e+00 -1.8347409e-02 
2.7905018e-03 0.0000000e+00 -1.8347409e-02 
0.0000000e+00 0.0000000e+00 0.0000000e+00 
0.0000000e+00 0.0000000e+00 0.0000000e+00 
2.8891166e-03 0.0000000e+00 -1.9824547e-02 
2.8891166e-03 0.0000000e+00 -1.9824547e-02 
0.0000000e+00 0.0000000e+00 0.0000000e+00 
0.0000000e+00 0.0000000e+00 0.0000000e+00 
2.9821776e-03 0.0000000e+00 -2.1314288e-02 
2.9821776e-03 0.0000000e+00 -2.1314288e-02 
0.0000000e+00 0.0000000e+00 0.0000000e+00 
0.0000000e+00 0.0000000e+00 0.0000000e+00 
3.0705478e-03 0.0000000e+00 -2.2814600e-02 
0.0000000e+00 0.0000000e+00 0.0000000e+00 
3.0705478e-03 0.0000000e+00 -2.2814600e-02 
0.0000000e+00 0.0000000e+00 0.0000000e+00 
3.1548300e-03 0.0000000e+00 -2.4324066e-02 
0.0000000e+00 0.0000000e+00 0.0000000e+00 
3.1548300e-03 0.0000000e+00 -2.4324066e-02 
0.0000000e+00 0.0000000e+00 0.0000000e+00 
3.2359781e-03 0.0000000e+00 -2.5840583e-02 
0.0000000e+00 0.0000000e+00 0.0000000e+00 
3.2359781e-03 0.0000000e+00 -2.5840583e-02 
0.0000000e+00 0.0000000e+00 0.0000000e+00 
0.0000000e+00 0.0000000e+00 0.0000000e+00 
3.3151290e-03 0.0000000e+00 -2.7361644e-02 
0.0000000e+00 0.0000000e+00 0.0000000e+00 
3.3151290e-03 0.0000000e+00 -2.7361644e-02 
0.0000000e+00 0.0000000e+00 0.0000000e+00 
3.3929284e-03 0.0000000e+00 -2.8885772e-02 
0.0000000e+00 0.0000000e+00 0.0000000e+00 
3.3929284e-03 0.0000000e+00 -2.8885772e-02 
0.0000000e+00 0.0000000e+00 0.0000000e+00 
0.0000000e+00 0.0000000e+00 0.0000000e+00 
3.4697398e-03 0.0000000e+00 -3.0412133e-02 
3.4697398e-03 0.0000000e+00 -3.0412133e-02 
0.0000000e+00 0.0000000e+00 0.0000000e+00 
0.0000000e+00 0.0000000e+00 0.0000000e+00 
3.5462913e-03 0.0000000e+00 -3.1939074e-02 
3.5462913e-03 0.0000000e+00 -3.1939074e-02 
0.0000000e+00 0.0000000e+00 0.0000000e+00 
0.0000000e+00 0.0000000e+00 0.0000000e+00 
3.6233997e-03 0.0000000e+00 -3.3464731e-02 
3.6233997e-03 0.0000000e+00 -3.3464731e-02 
0.0000000e+00 0.0000000e+00 0.0000000e+00 
0.0000000e+00 0.0000000e+00 0.0000000e+00 
3.7014641e-03 0.0000000e+00 -3.4988170e-02 
3.7014641e-03 0.0000000e+00 -3.4988170e-02 
0.0000000e+00 0.0000000e+00 0.0000000e+00 
0.0000000e+00 0.0000000e+00 0.0000000e+00 
3.7806376e-03 0.0000000e+00 -3.6509053e-02 
3.7806376e-03 0.0000000e+00 -3.6509053e-02 
0.0000000e+00 0.0000000e+00 0.0000000e+00 
0.0000000e+00 0.0000000e+00 0.0000000e+00 
3.8612727e-03 0.0000000e+00 -3.8026515e-02 
0.0000000e+00 0.0000000e+00 0.0000000e+00 
3.8612727e-03 0.0000000e+00 -3.8026515e-02 
0.0000000e+00 0.0000000e+00 0.0000000e+00 
4.1471111e-04 0.0000000e+00 -1.0407915e-03 
3.9439420e-03 0.0000000e+00 -3.9539159e-02 
4.1471111e-04 0.0000000e+00 -1.0407915e-03 
3.9439420e-03 0.0000000e+00 -3.9539159e-02 
8.0283220e-04 0.0000000e+00 -2.1065052e-03 
4.0290011e-03 0.0000000e+00 -4.1046146e-02 
8.0283220e-04 0.0000000e+00 -2.1065052e-03 
4.0290011e-03 0.0000000e+00 -4.1046146e-02 
1.1547241e-03 0.0000000e+00 -3.2405388e-03 
1.1547241e-03 0.0000000e+00 -3.2405388e-03 
4.1165735e-03 0.0000000e+00 -4.2547158e-02 
4.1165735e-03 0.0000000e+00 -4.2547158e-02 
1.4666413e-03 0.0000000e+00 -4.4557413e-03 
1.4666413e-03 0.0000000e+00 -4.4557413e-03 
4.2069620e-03 0.0000000e+00 -4.4041382e-02 
4.2069620e-03 0.0000000e+00 -4.4041382e-02 
1.7353145e-03 0.0000000e+00 -5.7534769e-03 
1.7353145e-03 0.0000000e+00 -5.7534769e-03 
4.3006438e-03 0.0000000e+00 -4.5527572e-02 
4.3006438e-03 0.0000000e+00 -4.5527572e-02 
1.9572415e-03 0.0000000e+00 -7.1353020e-03 
1.9572415e-03 0.0000000e+00 -7.1353020e-03 
4.3979868e-03 0.0000000e+00 -4.7004761e-02 
4.3979868e-03 0.0000000e+00 -4.7004761e-02 
2.1305556e-03 0.0000000e+00 -8.5997819e-03 
2.1305556e-03 0.0000000e+00 -8.5997819e-03 
4.4992490e-03 0.0000000e+00 -4.8472225e-02 
4.4992490e-03 0.0000000e+00 -4.8472225e-02 
2.2555407e-03 0.0000000e+00 -1.0142298e-02 
2.2555407e-03 0.0000000e+00 -1.0142298e-02 
4.6047113e-03 0.0000000e+00 -4.9929132e-02 
2.3348112e-03 0.0000000e+00 -1.1756358e-02 
4.6047113e-03 0.0000000e+00 -4.9929132e-02 
2.3348112e-03 0.0000000e+00 -1.1756358e-02 
2.3726251e-03 0.0000000e+00 -1.3433819e-02 
4.7147811e-03 0.0000000e+00 -5.1374273e-02 
2.3726251e-03 0.0000000e+00 -1.3433819e-02 
4.7147811e-03 0.0000000e+00 -5.1374273e-02 
2.3720784e-03 0.0000000e+00 -1.5167981e-02 
4.8299690e-03 0.0000000e+00 -5.2806152e-02 
2.3720784e-03 0.0000000e+00 -1.5167981e-02 
4.8299690e-03 0.0000000e+00 -5.2806152e-02 
2.3353451e-03 0.0000000e+00 -1.6954031e-02 
2.3353451e-03 0.0000000e+00 -1.6954031e-02 
4.9507246e-03 0.0000000e+00 -5.4223384e-02 
4.9507246e-03 0.0000000e+00 -5.4223384e-02 
2.2665370e-03 0.0000000e+00 -1.8785463e-02 
2.2665370e-03 0.0000000e+00 -1.8785463e-02 
5.0774195e-03 0.0000000e+00 -5.5624697e-02 
5.0774195e-03 0.0000000e+00 -5.5624697e-02 
2.1708751e-03 0.0000000e+00 -2.0654660e-02 
2.1708751e-03 0.0000000e+00 -2.0654660e-02 
5.2104096e-03 0.0000000e+00 -5.7008784e-02 
5.2104096e-03 0.0000000e+00 -5.7008784e-02 
2.0512878e-03 0.0000000e+00 -2.2556960e-02 
2.0512878e-03 0.0000000e+00 -2.2556960e-02 
5.3501059e-03 0.0000000e+00 -5.8374126e-02 
5.3501059e-03 0.0000000e+00 -5.8374126e-02 
1.9094082e-03 0.0000000e+00 -2.4489651e-02 
1.9094082e-03 0.0000000e+00 -2.4489651e-02 
5.4969266e-03 0.0000000e+00 -5.9719060e-02 
5.4969266e-03 0.0000000e+00 -5.9719060e-02 
1.7485496e-03 0.0000000e+00 -2.6448271e-02 
1.7485496e-03 0.0000000e+00 -2.6448271e-02 
5.6510844e-03 0.0000000e+00 -6.1042537e-02 
5.6510844e-03 0.0000000e+00 -6.1042537e-02 
1.5732544e-03 0.0000000e+00 -2.8426820e-02 
1.5732544e-03 0.0000000e+00 -2.8426820e-02 
5.8127228e-03 0.0000000e+00 -6.2343658e-02 
5.8127228e-03 0.0000000e+00 -6.2343658e-02 
1.3862653e-03 0.0000000e+00 -3.0421413e-02 
1.3862653e-03 0.0000000e+00 -3.0421413e-02 
5.9821870e-03 0.0000000e+00 -6.3620670e-02 
1.1890178e-03 0.0000000e+00 -3.2430043e-02 
5.9821870e-03 0.0000000e+00 -6.3620670e-02 
1.1890178e-03 0.0000000e+00 -3.2430043e-02 
6.1598929e-03 0.0000000e+00 -6.4871451e-02 
9.8420143e-04 0.0000000e+00 -3.4449143e-02 
6.1598929e-03 0.0000000e+00 -6.4871451e-02 
9.8420143e-04 0.0000000e+00 -3.4449143e-02 
7.7513466e-04 0.0000000e+00 -3.6474278e-02 
6.3461592e-03 0.0000000e+00 -6.6094242e-02 
7.7513466e-04 0.0000000e+00 -3.6474278e-02 
6.3461592e-03 0.0000000e+00 -6.6094242e-02 
5.6361892e-04 0.0000000e+00 -3.8502888e-02 
5.6361892e-04 0.0000000e+00 -3.8502888e-02 
6.5411287e-03 0.0000000e+00 -6.7287697e-02 
6.5411287e-03 0.0000000e+00 -6.7287697e-02 
3.5063423e-04 0.0000000e+00 -4.0533590e-02 
3.5063423e-04 0.0000000e+00 -4.0533590e-02 
6.7449445e-03 0.0000000e+00 -6.8450097e-02 
6.7449445e-03 0.0000000e+00 -6.8450097e-02 
1.3800975e-04 0.0000000e+00 -4.2563732e-02 
1.3800975e-04 0.0000000e+00 -4.2563732e-02 
6.9577633e-03 0.0000000e+00 -6.9579508e-02 
6.9577633e-03 0.0000000e+00 -6.9579508e-02 
-7.1866647e-05 0.0000000e+00 -4.4589742e-02 
-7.1866647e-05 0.0000000e+00 -4.4589742e-02 
7.1795413e-03 0.0000000e+00 -7.0674997e-02 
7.1795413e-03 0.0000000e+00 -7.0674997e-02 
-2.7763757e-04 0.0000000e+00 -4.6609567e-02 
-2.7763757e-04 0.0000000e+00 -4.6609567e-02 
7.4101283e-03 0.0000000e+00 -7.1735942e-02 
7.4101283e-03 0.0000000e+00 -7.1735942e-02 
-4.7866922e-04 0.0000000e+00 -4.8622193e-02 
-4.7866922e-04 0.0000000e+00 -4.8622193e-02 
7.6494920e-03 0.0000000e+00 -7.2760653e-02 
7.6494920e-03 0.0000000e+00 -7.2760653e-02 
-6.7376815e-04 0.0000000e+00 -5.0625494e-02 
-6.7376815e-04 0.0000000e+00 -5.0625494e-02 
7.8976663e-03 0.0000000e+00 -7.3746875e-02 
7.8976663e-03 0.0000000e+00 -7.3746875e-02 
-8.6127669e-04 0.0000000e+00 -5.2616504e-02 
-8.6127669e-04 0.0000000e+00 -5.2616504e-02 
8.1546323e-03 0.0000000e+00 -7.4692844e-02 
8.1546323e-03 0.0000000e+00 -7.4692844e-02 
-1.0401882e-03 0.0000000e+00 -5.4593494e-02 
-1.0401882e-03 0.0000000e+00 -5.4593494e-02 
8.4202183e-03 0.0000000e+00 -7.5597281e-02 
8.4202183e-03 0.0000000e+00 -7.5597281e-02 
-1.2101467e-03 0.0000000e+00 -5.6555779e-02 
-1.2101467e-03 0.0000000e+00 -5.6555779e-02 
8.6941864e-03 0.0000000e+00 -7.6458301e-02 
8.6941864e-03 0.0000000e+00 -7.6458301e-02 
-1.3705902e-03 0.0000000e+00 -5.8501887e-02 
-1.3705902e-03 0.0000000e+00 -5.8501887e-02 
8.9763330e-03 0.0000000e+00 -7.7273418e-02 
8.9763330e-03 0.0000000e+00 -7.7273418e-02 
-1.5204760e-03 0.0000000e+00 -6.0429493e-02 
-1.5204760e-03 0.0000000e+00 -6.0429493e-02 
9.2663752e-03 0.0000000e+00 -7.8041247e-02 
-1.6589474e-03 0.0000000e+00 -6.2336919e-02 
9.2663752e-03 0.0000000e+00 -7.8041247e-02 
-1.6589474e-03 0.0000000e+00 -6.2336919e-02 
-1.7855347e-03 0.0000000e+00 -6.4223171e-02 
9.5638345e-03 0.0000000e+00 -7.8761323e-02 
-1.7855347e-03 0.0000000e+00 -6.4223171e-02 
9.5638345e-03 0.0000000e+00 -7.8761323e-02 
-1.8998544e-03 0.0000000e+00 -6.6086703e-02 
9.8681732e-03 0.0000000e+00 -7.9432091e-02 
-1.8998544e-03 0.0000000e+00 -6.6086703e-02 
9.8681732e-03 0.0000000e+00 -7.9432091e-02 
-2.0012621e-03 0.0000000e+00 -6.7925439e-02 
-2.0012621e-03 0.0000000e+00 -6.7925439e-02 
1.0178878e-02 0.0000000e+00 -8.0051276e-02 
1.0178878e-02 0.0000000e+00 -8.0051276e-02 
-2.0890572e-03 0.0000000e+00 -6.9737811e-02 
-2.0890572e-03 0.0000000e+00 -6.9737811e-02 
1.0495444e-02 0.0000000e+00 -8.0617140e-02 
1.0495444e-02 0.0000000e+00 -8.0617140e-02 
-2.1628507e-03 0.0000000e+00 -7.1522802e-02 
-2.1628507e-03 0.0000000e+00 -7.1522802e-02 
1.0817255e-02 0.0000000e+00 -8.1128399e-02 
1.0817255e-02 0.0000000e+00 -8.1128399e-02 
-2.2223242e-03 0.0000000e+00 -7.3278812e-02 
-2.2223242e-03 0.0000000e+00 -7.3278812e-02 
1.1143513e-02 0.0000000e+00 -8.1583036e-02 
1.1143513e-02 0.0000000e+00 -8.1583036e-02 
-2.2669651e-03 0.0000000e+00 -7.5003750e-02 
-2.2669651e-03 0.0000000e+00 -7.5003750e-02 
1.1473356e-02 0.0000000e+00 -8.1978429e-02 
1.1473356e-02 0.0000000e+00 -8.1978429e-02 
-2.2961878e-03 0.0000000e+00 -7.6696072e-02 
-2.2961878e-03 0.0000000e+00 -7.6696072e-02 
1.1805948e-02 0.0000000e+00 -8.2313776e-02 
1.1805948e-02 0.0000000e+00 -8.2313776e-02 
-2.3096603e-03 0.0000000e+00 -7.8354684e-02 
-2.3096603e-03 0.0000000e+00 -7.8354684e-02 
1.2140378e-02 0.0000000e+00 -8.2589542e-02 
1.2140378e-02 0.0000000e+00 -8.2589542e-02 
-2.3074515e-03 0.0000000e+00 -7.9978376e-02 
-2.3074515e-03 0.0000000e+00 -7.9978376e-02 
1.2475544e-02 0.0000000e+00 -8.2804480e-02 
1.2475544e-02 0.0000000e+00 -8.2804480e-02 
-2.2893116e-03 0.0000000e+00 -8.1565123e-02 
-2.2893116e-03 0.0000000e+00 -8.1565123e-02 
1.2810261e-02 0.0000000e+00 -8.2956141e-02 
1.2810261e-02 0.0000000e+00 -8.2956141e-02 
-2.2545877e-03 0.0000000e+00 -8.3112906e-02 
-2.2545877e-03 0.0000000e+00 -8.3112906e-02 
1.3143402e-02 0.0000000e+00 -8.3042741e-02 
1.3143402e-02 0.0000000e+00 -8.3042741e-02 
-2.2029418e-03 0.0000000e+00 -8.4620347e-02 
-2.2029418e-03 0.0000000e+00 -8.4620347e-02 
1.3473783e-02 0.0000000e+00 -8.3063408e-02 
1.3473783e-02 0.0000000e+00 -8.3063408e-02 
-2.1342675e-03 0.0000000e+00 -8.6085562e-02 
-2.1342675e-03 0.0000000e+00 -8.6085562e-02 
1.3799957e-02 0.0000000e+00 -8.3016843e-02 
1.3799957e-02 0.0000000e+00 -8.3016843e-02 
-2.0482553e-03 0.0000000e+00 -8.7506056e-02 
-2.0482553e-03 0.0000000e+00 -8.7506056e-02 
1.4120345e-02 0.0000000e+00 -8.2901240e-02 
1.4120345e-02 0.0000000e+00 -8.2901240e-02 
-1.9449739e-03 0.0000000e+00 -8.8873105e-02 
-1.9449739e-03 0.0000000e+00 -8.8873105e-02 
1.4434654e-02 0.0000000e+00 -8.2716370e-02 
1.4434654e-02 0.0000000e+00 -8.2716370e-02 
-1.7972966e-03 0.0000000e+00 -9.0449645e-02 
-1.7972966e-03 0.0000000e+00 -9.0449645e-02 
1.4801036e-02 0.0000000e+00 -8.2405554e-02 
1.4801036e-02 0.0000000e+00 -8.2405554e-02 
-1.5864779e-03 0.0000000e+00 -9.2245480e-02 
-1.5864779e-03 0.0000000e+00 -9.2245480e-02 
1.5221804e-02 0.0000000e+00 -8.1904284e-02 
1.5221804e-02 0.0000000e+00 -8.1904284e-02 
-1.2855562e-03 0.0000000e+00 -9.4254364e-02 
-1.2855562e-03 0.0000000e+00 -9.4254364e-02 
1.5689289e-02 0.0000000e+00 -8.1125256e-02 
1.5689289e-02 0.0000000e+00 -8.1125256e-02 
-9.1144750e-04 0.0000000e+00 -9.6187341e-02 
-9.1144750e-04 0.0000000e+00 -9.6187341e-02 
1.6114280e-02 0.0000000e+00 -8.0144280e-02 
1.6114280e-02 0.0000000e+00 -8.0144280e-02 
-4.8071841e-04 0.0000000e+00 -9.7920339e-02 
-4.8071841e-04 0.0000000e+00 -9.7920339e-02 
1.6488489e-02 0.0000000e+00 -7.8960341e-02 
1.6488489e-02 0.0000000e+00 -7.8960341e-02 
4.4708292e-06 0.0000000e+00 -9.9438442e-02 
4.4708292e-06 0.0000000e+00 -9.9438442e-02 
1.6806653e-02 0.0000000e+00 -7.7580649e-02 
1.6806653e-02 0.0000000e+00 -7.7580649e-02 
5.4034989e-04 0.0000000e+00 -1.0072630e-01 
5.4034989e-04 0.0000000e+00 -1.0072630e-01 
1.7064707e-02 0.0000000e+00 -7.6014050e-02 
1.7064707e-02 0.0000000e+00 -7.6014050e-02 
1.1209702e-03 0.0000000e+00 -1.0177196e-01 
1.1209702e-03 0.0000000e+00 -1.0177196e-01 
1.7256975e-02 0.0000000e+00 -7.4265257e-02 
1.7256975e-02 0.0000000e+00 -7.4265257e-02 
1.7396143e-03 0.0000000e+00 -1.0256381e-01 
1.7396143e-03 0.0000000e+00 -1.0256381e-01 
1.7378977e-02 0.0000000e+00 -7.2339654e-02 
1.7378977e-02 0.0000000e+00 -7.2339654e-02 
2.3881953e-03 0.0000000e+00 -1.0308918e-01 