# vtk DataFile Version 4.0
vtk output
ASCII
DATASET UNSTRUCTURED_GRID
POINTS 824 float
-6.4148600e-05 1.0000000e-02 -4.4525366e-03 
-1.0680180e-04 1.0000000e-02 -2.8088474e-03 
3.4513260e-04 1.0000000e-02 -6.0450544e-03 
1.3803532e-03 1.0000000e-02 -7.3230534e-03 
6.5829700e-05 1.0000000e-02 -1.1736922e-03 
2.7142144e-03 1.0000000e-02 -8.2851896e-03 
5.0392030e-04 1.0000000e-02 6.5784910e-04 
4.1780764e-03 1.0000000e-02 -9.0342357e-03 
1.1628646e-03 1.0000000e-02 2.4220088e-03 
5.7070961e-03 1.0000000e-02 -9.6390187e-03 
2.0046218e-03 1.0000000e-02 4.1066196e-03 
7.2731595e-03 1.0000000e-02 -1.0140047e-02 
-6.4148600e-05 0.0000000e+00 -4.4525366e-03 
-1.0680180e-04 0.0000000e+00 -2.8088474e-03 
3.4513260e-04 0.0000000e+00 -6.0450544e-03 
1.3803532e-03 0.0000000e+00 -7.3230534e-03 
6.5829700e-05 0.0000000e+00 -1.1736922e-03 
2.9952540e-03 1.0000000e-02 5.7082181e-03 
8.8622628e-03 1.0000000e-02 -1.0562311e-02 
2.7142144e-03 0.0000000e+00 -8.2851896e-03 
5.0392030e-04 0.0000000e+00 6.5784910e-04 
4.1780764e-03 0.0000000e+00 -9.0342357e-03 
1.1628646e-03 0.0000000e+00 2.4220088e-03 
1.0466628e-02 1.0000000e-02 -1.0922252e-02 
4.1067238e-03 1.0000000e-02 7.2284501e-03 
5.7070961e-03 0.0000000e+00 -9.6390187e-03 
2.0046218e-03 0.0000000e+00 4.1066196e-03 
7.2731595e-03 0.0000000e+00 -1.0140047e-02 
1.2081579e-02 1.0000000e-02 -1.1231240e-02 
5.3166988e-03 1.0000000e-02 8.6715129e-03 
2.9952540e-03 0.0000000e+00 5.7082181e-03 
8.8622628e-03 0.0000000e+00 -1.0562311e-02 
1.3704120e-02 1.0000000e-02 -1.1497501e-02 
1.0466628e-02 0.0000000e+00 -1.0922252e-02 
4.1067238e-03 0.0000000e+00 7.2284501e-03 
6.6076374e-03 1.0000000e-02 1.0042624e-02 
1.5332244e-02 1.0000000e-02 -1.1727173e-02 
1.2081579e-02 0.0000000e+00 -1.1231240e-02 
5.3166988e-03 0.0000000e+00 8.6715129e-03 
7.9658343e-03 1.0000000e-02 1.1347144e-02 
1.3704120e-02 0.0000000e+00 -1.1497501e-02 
1.6964543e-02 1.0000000e-02 -1.1925002e-02 
6.6076374e-03 0.0000000e+00 1.0042624e-02 
9.3804686e-03 1.0000000e-02 1.2590236e-02 
1.5332244e-02 0.0000000e+00 -1.1727173e-02 
1.8600004e-02 1.0000000e-02 -1.2094716e-02 
7.9658343e-03 0.0000000e+00 1.1347144e-02 
1.6964543e-02 0.0000000e+00 -1.1925002e-02 
1.0843002e-02 1.0000000e-02 1.3776601e-02 
2.0237876e-02 1.0000000e-02 -1.2239318e-02 
9.3804686e-03 0.0000000e+00 1.2590236e-02 
1.8600004e-02 0.0000000e+00 -1.2094716e-02 
1.2346566e-02 1.0000000e-02 1.4910517e-02 
2.1877591e-02 1.0000000e-02 -1.2361246e-02 
1.0843002e-02 0.0000000e+00 1.3776601e-02 
2.0237876e-02 0.0000000e+00 -1.2239318e-02 
1.3885623e-02 1.0000000e-02 1.5995768e-02 
2.3518711e-02 1.0000000e-02 -1.2462540e-02 
1.2346566e-02 0.0000000e+00 1.4910517e-02 
2.1877591e-02 0.0000000e+00 -1.2361246e-02 
2.5160890e-02 1.0000000e-02 -1.2544903e-02 
1.5455654e-02 1.0000000e-02 1.7035707e-02 
1.3885623e-02 0.0000000e+00 1.5995768e-02 
2.3518711e-02 0.0000000e+00 -1.2462540e-02 
2.6803852e-02 1.0000000e-02 -1.2609772e-02 
1.7052912e-02 1.0000000e-02 1.8033321e-02 
2.5160890e-02 0.0000000e+00 -1.2544903e-02 
1.5455654e-02 0.0000000e+00 1.7035707e-02 
2.8447376e-02 1.0000000e-02 -1.2658389e-02 
2.6803852e-02 0.0000000e+00 -1.2609772e-02 
1.7052912e-02 0.0000000e+00 1.8033321e-02 
1.8674284e-02 1.0000000e-02 1.8991246e-02 
3.0091279e-02 1.0000000e-02 -1.2691814e-02 
2.8447376e-02 0.0000000e+00 -1.2658389e-02 
1.8674284e-02 0.0000000e+00 1.8991246e-02 
2.0317149e-02 1.0000000e-02 1.9911822e-02 
3.0091279e-02 0.0000000e+00 -1.2691814e-02 
3.1735410e-02 1.0000000e-02 -1.2710971e-02 
2.0317149e-02 0.0000000e+00 1.9911822e-02 
2.1979295e-02 1.0000000e-02 2.0797113e-02 
3.1735410e-02 0.0000000e+00 -1.2710971e-02 
3.3379643e-02 1.0000000e-02 -1.2716676e-02 
2.1979295e-02 0.0000000e+00 2.0797113e-02 
2.3658832e-02 1.0000000e-02 2.1648949e-02 
3.3379643e-02 0.0000000e+00 -1.2716676e-02 
3.5023871e-02 1.0000000e-02 -1.2709629e-02 
2.3658832e-02 0.0000000e+00 2.1648949e-02 
2.5354100e-02 1.0000000e-02 2.2469029e-02 
3.5023871e-02 0.0000000e+00 -1.2709629e-02 
3.6668001e-02 1.0000000e-02 -1.2690457e-02 
2.5354100e-02 0.0000000e+00 2.2469029e-02 
2.7063712e-02 1.0000000e-02 2.3258772e-02 
3.6668001e-02 0.0000000e+00 -1.2690457e-02 
3.8312016e-02 1.0000000e-02 -1.2663038e-02 
2.7063712e-02 0.0000000e+00 2.3258772e-02 
3.8312016e-02 0.0000000e+00 -1.2663038e-02 
2.8786417e-02 1.0000000e-02 2.4019532e-02 
3.9956032e-02 1.0000000e-02 -1.2635752e-02 
2.8786417e-02 0.0000000e+00 2.4019532e-02 
3.9956032e-02 0.0000000e+00 -1.2635752e-02 
3.0521135e-02 1.0000000e-02 2.4752486e-02 
4.1600048e-02 1.0000000e-02 -1.2608467e-02 
3.0521135e-02 0.0000000e+00 2.4752486e-02 
4.1600048e-02 0.0000000e+00 -1.2608467e-02 
3.2266919e-02 1.0000000e-02 2.5458676e-02 
4.3299814e-02 1.0000000e-02 -1.2580255e-02 
3.2266919e-02 0.0000000e+00 2.5458676e-02 
4.3299814e-02 0.0000000e+00 -1.2580255e-02 
3.4022902e-02 1.0000000e-02 2.6139111e-02 
4.5339533e-02 1.0000000e-02 -1.2546402e-02 
3.4022902e-02 0.0000000e+00 2.6139111e-02 
4.5339533e-02 0.0000000e+00 -1.2546402e-02 
3.5788340e-02 1.0000000e-02 2.6794623e-02 
4.7787196e-02 1.0000000e-02 -1.2505778e-02 
3.5788340e-02 0.0000000e+00 2.6794623e-02 
3.7562554e-02 1.0000000e-02 2.7425996e-02 
4.7787196e-02 0.0000000e+00 -1.2505778e-02 
3.7562554e-02 0.0000000e+00 2.7425996e-02 
3.9344928e-02 1.0000000e-02 2.8033950e-02 
5.0379113e-02 1.0000000e-02 -1.2462760e-02 
3.9344928e-02 0.0000000e+00 2.8033950e-02 
5.0379113e-02 0.0000000e+00 -1.2462760e-02 
4.1134916e-02 1.0000000e-02 2.8619109e-02 
5.2971029e-02 1.0000000e-02 -1.2419741e-02 
4.1134916e-02 0.0000000e+00 2.8619109e-02 
5.2971029e-02 0.0000000e+00 -1.2419741e-02 
4.2932026e-02 1.0000000e-02 2.9182016e-02 
4.2932026e-02 0.0000000e+00 2.9182016e-02 
5.5562946e-02 1.0000000e-02 -1.2376723e-02 
4.5339682e-02 1.0000000e-02 2.9899231e-02 
5.5562946e-02 0.0000000e+00 -1.2376723e-02 
4.5339682e-02 0.0000000e+00 2.9899231e-02 
5.8154863e-02 1.0000000e-02 -1.2333705e-02 
4.7758221e-02 1.0000000e-02 3.0578844e-02 
5.8154863e-02 0.0000000e+00 -1.2333705e-02 
4.7758221e-02 0.0000000e+00 3.0578844e-02 
6.0746779e-02 1.0000000e-02 -1.2290686e-02 
5.0186760e-02 1.0000000e-02 3.1221807e-02 
6.0746779e-02 0.0000000e+00 -1.2290686e-02 
5.0186760e-02 0.0000000e+00 3.1221807e-02 
6.3338696e-02 1.0000000e-02 -1.2247668e-02 
5.2624513e-02 1.0000000e-02 3.1828903e-02 
6.3338696e-02 0.0000000e+00 -1.2247668e-02 
5.2624513e-02 0.0000000e+00 3.1828903e-02 
5.5070762e-02 1.0000000e-02 3.2400804e-02 
6.5930613e-02 1.0000000e-02 -1.2204650e-02 
5.5070762e-02 0.0000000e+00 3.2400804e-02 
6.5930613e-02 0.0000000e+00 -1.2204650e-02 
5.7524847e-02 1.0000000e-02 3.2938082e-02 
6.8522529e-02 1.0000000e-02 -1.2161631e-02 
5.7524847e-02 0.0000000e+00 3.2938082e-02 
6.8522529e-02 0.0000000e+00 -1.2161631e-02 
5.9986169e-02 1.0000000e-02 3.3441170e-02 
7.1114446e-02 1.0000000e-02 -1.2118613e-02 
5.9986169e-02 0.0000000e+00 3.3441170e-02 
7.1114446e-02 0.0000000e+00 -1.2118613e-02 
6.2454163e-02 1.0000000e-02 3.3910436e-02 
6.2454163e-02 0.0000000e+00 3.3910436e-02 
7.3706362e-02 1.0000000e-02 -1.2075595e-02 
7.3706362e-02 0.0000000e+00 -1.2075595e-02 
6.4928303e-02 1.0000000e-02 3.4346139e-02 
6.4928303e-02 0.0000000e+00 3.4346139e-02 
7.6298279e-02 1.0000000e-02 -1.2032577e-02 
7.6298279e-02 0.0000000e+00 -1.2032577e-02 
6.7408092e-02 1.0000000e-02 3.4748446e-02 
6.7408092e-02 0.0000000e+00 3.4748446e-02 
7.8890196e-02 1.0000000e-02 -1.1989558e-02 
7.8890196e-02 0.0000000e+00 -1.1989558e-02 
6.9893057e-02 1.0000000e-02 3.5117436e-02 
6.9893057e-02 0.0000000e+00 3.5117436e-02 
8.1482112e-02 1.0000000e-02 -1.1946540e-02 
8.1482112e-02 0.0000000e+00 -1.1946540e-02 
7.2382742e-02 1.0000000e-02 3.5453098e-02 
7.2382742e-02 0.0000000e+00 3.5453098e-02 
8.4074029e-02 1.0000000e-02 -1.1903522e-02 
7.4876707e-02 1.0000000e-02 3.5755332e-02 
8.4074029e-02 0.0000000e+00 -1.1903522e-02 
7.4876707e-02 0.0000000e+00 3.5755332e-02 
8.6665946e-02 1.0000000e-02 -1.1860503e-02 
7.7374516e-02 1.0000000e-02 3.6023948e-02 
8.6665946e-02 0.0000000e+00 -1.1860503e-02 
7.7374516e-02 0.0000000e+00 3.6023948e-02 
8.9257862e-02 1.0000000e-02 -1.1817485e-02 
7.9875738e-02 1.0000000e-02 3.6258665e-02 
8.9257862e-02 0.0000000e+00 -1.1817485e-02 
7.9875738e-02 0.0000000e+00 3.6258665e-02 
8.2379940e-02 1.0000000e-02 3.6459105e-02 
9.1849779e-02 1.0000000e-02 -1.1774467e-02 
8.2379940e-02 0.0000000e+00 3.6459105e-02 
9.1849779e-02 0.0000000e+00 -1.1774467e-02 
8.4886681e-02 1.0000000e-02 3.6624786e-02 
9.4441696e-02 1.0000000e-02 -1.1731448e-02 
8.4886681e-02 0.0000000e+00 3.6624786e-02 
9.4441696e-02 0.0000000e+00 -1.1731448e-02 
8.7395510e-02 1.0000000e-02 3.6755108e-02 
8.7395510e-02 0.0000000e+00 3.6755108e-02 
9.7033612e-02 1.0000000e-02 -1.1688430e-02 
9.7033612e-02 0.0000000e+00 -1.1688430e-02 
8.9905951e-02 1.0000000e-02 3.6849401e-02 
8.9905951e-02 0.0000000e+00 3.6849401e-02 
9.9625529e-02 1.0000000e-02 -1.1645412e-02 
9.9625529e-02 0.0000000e+00 -1.1645412e-02 
9.2417505e-02 1.0000000e-02 3.6906832e-02 
9.2417505e-02 0.0000000e+00 3.6906832e-02 
1.0221745e-01 1.0000000e-02 -1.1602393e-02 
1.0221745e-01 0.0000000e+00 -1.1602393e-02 
9.4929640e-02 1.0000000e-02 3.6926425e-02 
9.4929640e-02 0.0000000e+00 3.6926425e-02 
1.0480936e-01 1.0000000e-02 -1.1559375e-02 
1.0480936e-01 0.0000000e+00 -1.1559375e-02 
9.7441776e-02 1.0000000e-02 3.6907077e-02 
9.7441776e-02 0.0000000e+00 3.6907077e-02 
1.0740128e-01 1.0000000e-02 -1.1516357e-02 
1.0740128e-01 0.0000000e+00 -1.1516357e-02 
9.9953281e-02 1.0000000e-02 3.6847529e-02 
9.9953281e-02 0.0000000e+00 3.6847529e-02 
1.0999320e-01 1.0000000e-02 -1.1473339e-02 
1.0246345e-01 1.0000000e-02 3.6746314e-02 
1.0999320e-01 0.0000000e+00 -1.1473339e-02 
1.0246345e-01 0.0000000e+00 3.6746314e-02 
1.0497150e-01 1.0000000e-02 3.6601738e-02 
1.1258511e-01 1.0000000e-02 -1.1430320e-02 
1.0497150e-01 0.0000000e+00 3.6601738e-02 
1.1258511e-01 0.0000000e+00 -1.1430320e-02 
1.0747666e-01 1.0000000e-02 3.6413638e-02 
1.1517703e-01 1.0000000e-02 -1.1387302e-02 
1.0747666e-01 0.0000000e+00 3.6413638e-02 
[...]
POINT_DATA 824
FIELD FieldData 2
DISPLACEMENT 3 824  float
0.0000000e+00 0.0000000e+00 0.0000000e+00 
0.0000000e+00 0.0000000e+00 0.0000000e+00 
0.0000000e+00 0.0000000e+00 0.0000000e+00 
0.0000000e+00 0.0000000e+00 0.0000000e+00 
0.0000000e+00 0.0000000e+00 0.0000000e+00 
0.0000000e+00 0.0000000e+00 0.0000000e+00 
0.0000000e+00 0.0000000e+00 0.0000000e+00 
0.0000000e+00 0.0000000e+00 0.0000000e+00 
0.0000000e+00 0.0000000e+00 0.0000000e+00 
0.0000000e+00 0.0000000e+00 0.0000000e+00 
0.0000000e+00 0.0000000e+00 0.0000000e+00 
0.0000000e+00 0.0000000e+00 0.0000000e+00 
0.0000000e+00 0.0000000e+00 0.0000000e+00 
0.0000000e+00 0.0000000e+00 0.0000000e+00 
0.0000000e+00 0.0000000e+00 0.0000000e+00 
0.0000000e+00 0.0000000e+00 0.0000000e+00 
0.0000000e+00 0.0000000e+00 0.0000000e+00 
0.0000000e+00 0.0000000e+00 0.0000000e+00 
0.0000000e+00 0.0000000e+00 0.0000000e+00 
0.0000000e+00 0.0000000e+00 0.0000000e+00 
0.0000000e+00 0.0000000e+00 0.0000000e+00 
0.0000000e+00 0.0000000e+00 0.0000000e+00 
0.0000000e+00 0.0000000e+00 0.0000000e+00 
0.0000000e+00 0.0000000e+00 0.0000000e+00 
0.0000000e+00 0.0000000e+00 0.0000000e+00 
0.0000000e+00 0.0000000e+00 0.0000000e+00 
0.0000000e+00 0.0000000e+00 0.0000000e+00 
0.0000000e+00 0.0000000e+00 0.0000000e+00 
0.0000000e+00 0.0000000e+00 0.0000000e+00 
0.0000000e+00 0.0000000e+00 0.0000000e+00 
0.0000000e+00 0.0000000e+00 0.0000000e+00 
0.0000000e+00 0.0000000e+00 0.0000000e+00 
0.0000000e+00 0.0000000e+00 0.0000000e+00 
0.0000000e+00 0.0000000e+00 0.0000000e+00 
0.0000000e+00 0.0000000e+00 0.0000000e+00 
0.0000000e+00 0.0000000e+00 0.0000000e+00 
0.0000000e+00 0.0000000e+00 0.0000000e+00 
0.0000000e+00 0.0000000e+00 0.0000000e+00 
0.0000000e+00 0.0000000e+00 0.0000000e+00 
0.0000000e+00 0.0000000e+00 0.0000000e+00 
0.0000000e+00 0.0000000e+00 0.0000000e+00 
0.0000000e+00 0.0000000e+00 0.0000000e+00 
0.0000000e+00 0.0000000e+00 0.0000000e+00 
0.0000000e+00 0.0000000e+00 0.0000000e+00 
0.0000000e+00 0.0000000e+00 0.0000000e+00 
0.0000000e+00 0.0000000e+00 0.0000000e+00 
0.0000000e+00 0.0000000e+00 0.0000000e+00 
0.0000000e+00 0.0000000e+00 0.0000000e+00 
0.0000000e+00 0.0000000e+00 0.0000000e+00 
0.0000000e+00 0.0000000e+00 0.0000000e+00 
0.0000000e+00 0.0000000e+00 0.0000000e+00 
0.0000000e+00 0.0000000e+00 0.0000000e+00 
0.0000000e+00 0.0000000e+00 0.0000000e+00 
0.0000000e+00 0.0000000e+00 0.0000000e+00 
0.0000000e+00 0.0000000e+00 0.0000000e+00 
0.0000000e+00 0.0000000e+00 0.0000000e+00 
0.0000000e+00 0.0000000e+00 0.0000000e+00 
0.0000000e+00 0.0000000e+00 0.0000000e+00 
0.0000000e+00 0.0000000e+00 0.0000000e+00 
0.0000000e+00 0.0000000e+00 0.0000000e+00 
0.0000000e+00 0.0000000e+00 0.0000000e+00 
0.0000000e+00 0.0000000e+00 0.0000000e+00 
0.0000000e+00 0.0000000e+00 0.0000000e+00 
0.0000000e+00 0.0000000e+00 0.0000000e+00 
0.0000000e+00 0.0000000e+00 0.0000000e+00 
0.0000000e+00 0.0000000e+00 0.0000000e+00 
0.0000000e+00 0.0000000e+00 0.0000000e+00 
0.0000000e+00 0.0000000e+00 0.0000000e+00 
0.0000000e+00 0.0000000e+00 0.0000000e+00 
0.0000000e+00 0.0000000e+00 0.0000000e+00 
0.0000000e+00 0.0000000e+00 0.0000000e+00 
0.0000000e+00 0.0000000e+00 0.0000000e+00 
0.0000000e+00 0.0000000e+00 0.0000000e+00 
0.0000000e+00 0.0000000e+00 0.0000000e+00 
0.0000000e+00 0.0000000e+00 0.0000000e+00 
0.0000000e+00 0.0000000e+00 0.0000000e+00 
0.0000000e+00 0.0000000e+00 0.0000000e+00 
0.0000000e+00 0.0000000e+00 0.0000000e+00 
0.0000000e+00 0.0000000e+00 0.0000000e+00 
0.0000000e+00 0.0000000e+00 0.0000000e+00 
0.0000000e+00 0.0000000e+00 0.0000000e+00 
0.0000000e+00 0.0000000e+00 0.0000000e+00 
0.0000000e+00 0.0000000e+00 0.0000000e+00 
0.0000000e+00 0.0000000e+00 0.0000000e+00 
0.0000000e+00 0.0000000e+00 0.0000000e+00 
0.0000000e+00 0.0000000e+00 0.0000000e+00 
0.0000000e+00 0.0000000e+00 0.0000000e+00 
0.0000000e+00 0.0000000e+00 0.0000000e+00 
0.0000000e+00 0.0000000e+00 0.0000000e+00 
0.0000000e+00 0.0000000e+00 0.0000000e+00 
0.0000000e+00 0.0000000e+00 0.0000000e+00 
0.0000000e+00 0.0000000e+00 0.0000000e+00 
0.0000000e+00 0.0000000e+00 0.0000000e+00 
0.0000000e+00 0.0000000e+00 0.0000000e+00 
0.0000000e+00 0.0000000e+00 0.0000000e+00 
0.0000000e+00 0.0000000e+00 0.0000000e+00 
0.0000000e+00 0.0000000e+00 0.0000000e+00 
-1.7572190e-05 0.0000000e+00 -5.9516004e-04 
0.0000000e+00 0.0000000e+00 0.0000000e+00 
-1.7572190e-05 0.0000000e+00 -5.9516004e-04 
0.0000000e+00 0.0000000e+00 0.0000000e+00 
-3.2426170e-05 0.0000000e+00 -1.1810145e-03 
0.0000000e+00 0.0000000e+00 0.0000000e+00 
-3.2426170e-05 0.0000000e+00 -1.1810145e-03 
0.0000000e+00 0.0000000e+00 0.0000000e+00 
-4.4683777e-05 0.0000000e+00 -1.7758936e-03 
0.0000000e+00 0.0000000e+00 0.0000000e+00 
-4.4683777e-05 0.0000000e+00 -1.7758936e-03 
0.0000000e+00 0.0000000e+00 0.0000000e+00 
-5.4823335e-05 0.0000000e+00 -2.4733413e-03 
0.0000000e+00 0.0000000e+00 0.0000000e+00 
-5.4823335e-05 0.0000000e+00 -2.4733413e-03 
0.0000000e+00 0.0000000e+00 0.0000000e+00 
-5.9920925e-05 0.0000000e+00 -3.2838565e-03 
0.0000000e+00 0.0000000e+00 0.0000000e+00 
0.0000000e+00 0.0000000e+00 0.0000000e+00 
-5.9920925e-05 0.0000000e+00 -3.2838565e-03 
0.0000000e+00 0.0000000e+00 0.0000000e+00 
0.0000000e+00 0.0000000e+00 0.0000000e+00 
-5.6375494e-05 0.0000000e+00 -4.1070164e-03 
0.0000000e+00 0.0000000e+00 0.0000000e+00 
-5.6375494e-05 0.0000000e+00 -4.1070164e-03 
0.0000000e+00 0.0000000e+00 0.0000000e+00 
-4.3323591e-05 0.0000000e+00 -4.8907446e-03 
0.0000000e+00 0.0000000e+00 0.0000000e+00 
-4.3323591e-05 0.0000000e+00 -4.8907446e-03 
0.0000000e+00 0.0000000e+00 0.0000000e+00 
0.0000000e+00 0.0000000e+00 0.0000000e+00 
-2.0905819e-05 0.0000000e+00 -5.6331546e-03 
0.0000000e+00 0.0000000e+00 0.0000000e+00 
-2.0905819e-05 0.0000000e+00 -5.6331546e-03 
0.0000000e+00 0.0000000e+00 0.0000000e+00 
1.0451763e-05 0.0000000e+00 -6.3335717e-03 
0.0000000e+00 0.0000000e+00 0.0000000e+00 
1.0451763e-05 0.0000000e+00 -6.3335717e-03 
0.0000000e+00 0.0000000e+00 0.0000000e+00 
5.0145971e-05 0.0000000e+00 -6.9921229e-03 
0.0000000e+00 0.0000000e+00 0.0000000e+00 
5.0145971e-05 0.0000000e+00 -6.9921229e-03 
0.0000000e+00 0.0000000e+00 0.0000000e+00 
9.7630179e-05 0.0000000e+00 -7.6084679e-03 
0.0000000e+00 0.0000000e+00 0.0000000e+00 
9.7630179e-05 0.0000000e+00 -7.6084679e-03 
0.0000000e+00 0.0000000e+00 0.0000000e+00 
0.0000000e+00 0.0000000e+00 0.0000000e+00 
1.5242416e-04 0.0000000e+00 -8.1817939e-03 
0.0000000e+00 0.0000000e+00 0.0000000e+00 
1.5242416e-04 0.0000000e+00 -8.1817939e-03 
0.0000000e+00 0.0000000e+00 0.0000000e+00 
2.1390088e-04 0.0000000e+00 -8.7123366e-03 
0.0000000e+00 0.0000000e+00 0.0000000e+00 
2.1390088e-04 0.0000000e+00 -8.7123366e-03 
0.0000000e+00 0.0000000e+00 0.0000000e+00 
2.8134227e-04 0.0000000e+00 -9.2010873e-03 
0.0000000e+00 0.0000000e+00 0.0000000e+00 
2.8134227e-04 0.0000000e+00 -9.2010873e-03 
0.0000000e+00 0.0000000e+00 0.0000000e+00 
0.0000000e+00 0.0000000e+00 0.0000000e+00 
3.5412898e-04 0.0000000e+00 -9.6482346e-03 
3.5412898e-04 0.0000000e+00 -9.6482346e-03 
0.0000000e+00 0.0000000e+00 0.0000000e+00 
0.0000000e+00 0.0000000e+00 0.0000000e+00 
4.3171588e-04 0.0000000e+00 -1.0053362e-02 
4.3171588e-04 0.0000000e+00 -1.0053362e-02 
0.0000000e+00 0.0000000e+00 0.0000000e+00 
0.0000000e+00 0.0000000e+00 0.0000000e+00 
5.1348680e-04 0.0000000e+00 -1.0417054e-02 
5.1348680e-04 0.0000000e+00 -1.0417054e-02 
0.0000000e+00 0.0000000e+00 0.0000000e+00 
0.0000000e+00 0.0000000e+00 0.0000000e+00 
5.9879823e-04 0.0000000e+00 -1.0740532e-02 
5.9879823e-04 0.0000000e+00 -1.0740532e-02 
0.0000000e+00 0.0000000e+00 0.0000000e+00 
0.0000000e+00 0.0000000e+00 0.0000000e+00 
6.8709372e-04 0.0000000e+00 -1.1023871e-02 
0.0000000e+00 0.0000000e+00 0.0000000e+00 
6.8709372e-04 0.0000000e+00 -1.1023871e-02 
0.0000000e+00 0.0000000e+00 0.0000000e+00 
7.7784464e-04 0.0000000e+00 -1.1266688e-02 
0.0000000e+00 0.0000000e+00 0.0000000e+00 
7.7784464e-04 0.0000000e+00 -1.1266688e-02 
0.0000000e+00 0.0000000e+00 0.0000000e+00 
8.7050363e-04 0.0000000e+00 -1.1469670e-02 
0.0000000e+00 0.0000000e+00 0.0000000e+00 
8.7050363e-04 0.0000000e+00 -1.1469670e-02 
0.0000000e+00 0.0000000e+00 0.0000000e+00 
0.0000000e+00 0.0000000e+00 0.0000000e+00 
9.6452814e-04 0.0000000e+00 -1.1634277e-02 
0.0000000e+00 0.0000000e+00 0.0000000e+00 
9.6452814e-04 0.0000000e+00 -1.1634277e-02 
0.0000000e+00 0.0000000e+00 0.0000000e+00 
1.0594077e-03 0.0000000e+00 -1.1760883e-02 
0.0000000e+00 0.0000000e+00 0.0000000e+00 
1.0594077e-03 0.0000000e+00 -1.1760883e-02 
0.0000000e+00 0.0000000e+00 0.0000000e+00 
0.0000000e+00 0.0000000e+00 0.0000000e+00 
1.1546492e-03 0.0000000e+00 -1.1848891e-02 
1.1546492e-03 0.0000000e+00 -1.1848891e-02 
0.0000000e+00 0.0000000e+00 0.0000000e+00 
0.0000000e+00 0.0000000e+00 0.0000000e+00 
1.2497869e-03 0.0000000e+00 -1.1899037e-02 
1.2497869e-03 0.0000000e+00 -1.1899037e-02 
0.0000000e+00 0.0000000e+00 0.0000000e+00 
0.0000000e+00 0.0000000e+00 0.0000000e+00 
1.3444019e-03 0.0000000e+00 -1.1912944e-02 
1.3444019e-03 0.0000000e+00 -1.1912944e-02 
0.0000000e+00 0.0000000e+00 0.0000000e+00 
0.0000000e+00 0.0000000e+00 0.0000000e+00 
1.4380507e-03 0.0000000e+00 -1.1890917e-02 
1.4380507e-03 0.0000000e+00 -1.1890917e-02 
0.0000000e+00 0.0000000e+00 0.0000000e+00 
0.0000000e+00 0.0000000e+00 0.0000000e+00 
1.5302739e-03 0.0000000e+00 -1.1832635e-02 
1.5302739e-03 0.0000000e+00 -1.1832635e-02 
0.0000000e+00 0.0000000e+00 0.0000000e+00 
0.0000000e+00 0.0000000e+00 0.0000000e+00 
1.6207243e-03 0.0000000e+00 -1.1739362e-02 
0.0000000e+00 0.0000000e+00 0.0000000e+00 
1.6207243e-03 0.0000000e+00 -1.1739362e-02 
0.0000000e+00 0.0000000e+00 0.0000000e+00 
-3.1332565e-04 0.0000000e+00 -1.4985369e-03 
1.7091459e-03 0.0000000e+00 -1.1613057e-02 
-3.1332565e-04 0.0000000e+00 -1.4985369e-03 
1.7091459e-03 0.0000000e+00 -1.1613057e-02 
-6.0064206e-04 0.0000000e+00 -2.9127233e-03 
1.7951980e-03 0.0000000e+00 -1.1454193e-02 
-6.0064206e-04 0.0000000e+00 -2.9127233e-03 
1.7951980e-03 0.0000000e+00 -1.1454193e-02 
-8.5977278e-04 0.0000000e+00 -4.2650196e-03 
-8.5977278e-04 0.0000000e+00 -4.2650196e-03 
1.8784874e-03 0.0000000e+00 -1.1262505e-02 
1.8784874e-03 0.0000000e+00 -1.1262505e-02 
-1.0904210e-03 0.0000000e+00 -5.5634032e-03 
-1.0904210e-03 0.0000000e+00 -5.5634032e-03 
1.9587639e-03 0.0000000e+00 -1.1038968e-02 
1.9587639e-03 0.0000000e+00 -1.1038968e-02 
-1.2913727e-03 0.0000000e+00 -6.8027623e-03 
-1.2913727e-03 0.0000000e+00 -6.8027623e-03 
2.0359001e-03 0.0000000e+00 -1.0785379e-02 
2.0359001e-03 0.0000000e+00 -1.0785379e-02 
-1.4613275e-03 0.0000000e+00 -7.9771653e-03 
-1.4613275e-03 0.0000000e+00 -7.9771653e-03 
2.1096771e-03 0.0000000e+00 -1.0502546e-02 
2.1096771e-03 0.0000000e+00 -1.0502546e-02 
-1.6000776e-03 0.0000000e+00 -9.0825936e-03 
-1.6000776e-03 0.0000000e+00 -9.0825936e-03 
2.1798218e-03 0.0000000e+00 -1.0190676e-02 
2.1798218e-03 0.0000000e+00 -1.0190676e-02 
-1.7087158e-03 0.0000000e+00 -1.0117521e-02 
-1.7087158e-03 0.0000000e+00 -1.0117521e-02 
2.2462070e-03 0.0000000e+00 -9.8508258e-03 
-1.7882927e-03 0.0000000e+00 -1.1080281e-02 
2.2462070e-03 0.0000000e+00 -9.8508258e-03 
-1.7882927e-03 0.0000000e+00 -1.1080281e-02 
-1.8402425e-03 0.0000000e+00 -1.1969937e-02 
2.3088056e-03 0.0000000e+00 -9.4845355e-03 
-1.8402425e-03 0.0000000e+00 -1.1969937e-02 
2.3088056e-03 0.0000000e+00 -9.4845355e-03 
-1.8663834e-03 0.0000000e+00 -1.2786247e-02 
2.3674819e-03 0.0000000e+00 -9.0925098e-03 
-1.8663834e-03 0.0000000e+00 -1.2786247e-02 
2.3674819e-03 0.0000000e+00 -9.0925098e-03 
-1.8685855e-03 0.0000000e+00 -1.3529106e-02 
-1.8685855e-03 0.0000000e+00 -1.3529106e-02 
2.4220589e-03 0.0000000e+00 -8.6750825e-03 
2.4220589e-03 0.0000000e+00 -8.6750825e-03 
-1.8487465e-03 0.0000000e+00 -1.4198585e-02 
-1.8487465e-03 0.0000000e+00 -1.4198585e-02 
2.4725066e-03 0.0000000e+00 -8.2333126e-03 
2.4725066e-03 0.0000000e+00 -8.2333126e-03 
-1.8086485e-03 0.0000000e+00 -1.4794370e-02 
-1.8086485e-03 0.0000000e+00 -1.4794370e-02 
2.5188738e-03 0.0000000e+00 -7.7685488e-03 
2.5188738e-03 0.0000000e+00 -7.7685488e-03 
-1.7501236e-03 0.0000000e+00 -1.5316274e-02 
-1.7501236e-03 0.0000000e+00 -1.5316274e-02 
2.5611137e-03 0.0000000e+00 -7.2815269e-03 
2.5611137e-03 0.0000000e+00 -7.2815269e-03 
-1.6750732e-03 0.0000000e+00 -1.5764424e-02 
-1.6750732e-03 0.0000000e+00 -1.5764424e-02 
2.5991376e-03 0.0000000e+00 -6.7726884e-03 
2.5991376e-03 0.0000000e+00 -6.7726884e-03 
-1.5854413e-03 0.0000000e+00 -1.6139362e-02 
-1.5854413e-03 0.0000000e+00 -1.6139362e-02 
2.6329810e-03 0.0000000e+00 -6.2429988e-03 
2.6329810e-03 0.0000000e+00 -6.2429988e-03 
-1.4832649e-03 0.0000000e+00 -1.6442527e-02 
-1.4832649e-03 0.0000000e+00 -1.6442527e-02 
2.6627512e-03 0.0000000e+00 -5.6936556e-03 
2.6627512e-03 0.0000000e+00 -5.6936556e-03 
-1.3705314e-03 0.0000000e+00 -1.6675732e-02 
-1.3705314e-03 0.0000000e+00 -1.6675732e-02 
2.6884887e-03 0.0000000e+00 -5.1254779e-03 
-1.2490399e-03 0.0000000e+00 -1.6840360e-02 
2.6884887e-03 0.0000000e+00 -5.1254779e-03 
-1.2490399e-03 0.0000000e+00 -1.6840360e-02 
2.7102038e-03 0.0000000e+00 -4.5390788e-03 
-1.1204783e-03 0.0000000e+00 -1.6937757e-02 
2.7102038e-03 0.0000000e+00 -4.5390788e-03 
-1.1204783e-03 0.0000000e+00 -1.6937757e-02 
-9.8650157e-04 0.0000000e+00 -1.6970151e-02 
2.7279939e-03 0.0000000e+00 -3.9353677e-03 
-9.8650157e-04 0.0000000e+00 -1.6970151e-02 
2.7279939e-03 0.0000000e+00 -3.9353677e-03 
-8.4862444e-04 0.0000000e+00 -1.6939718e-02 
-8.4862444e-04 0.0000000e+00 -1.6939718e-02 
2.7420142e-03 0.0000000e+00 -3.3154363e-03 
2.7420142e-03 0.0000000e+00 -3.3154363e-03 
-7.0820467e-04 0.0000000e+00 -1.6848089e-02 
-7.0820467e-04 0.0000000e+00 -1.6848089e-02 
2.7523549e-03 0.0000000e+00 -2.6800498e-03 
2.7523549e-03 0.0000000e+00 -2.6800498e-03 
-5.6649867e-04 0.0000000e+00 -1.6697343e-02 
-5.6649867e-04 0.0000000e+00 -1.6697343e-02 
2.7590895e-03 0.0000000e+00 -2.0298493e-03 
2.7590895e-03 0.0000000e+00 -2.0298493e-03 
-4.2463921e-04 0.0000000e+00 -1.6489959e-02 
-4.2463921e-04 0.0000000e+00 -1.6489959e-02 
2.7623634e-03 0.0000000e+00 -1.3657204e-03 
2.7623634e-03 0.0000000e+00 -1.3657204e-03 
-2.8363255e-04 0.0000000e+00 -1.6228136e-02 
-2.8363255e-04 0.0000000e+00 -1.6228136e-02 
2.7623410e-03 0.0000000e+00 -6.8856820e-04 
2.7623410e-03 0.0000000e+00 -6.8856820e-04 
-1.4437978e-04 0.0000000e+00 -1.5913811e-02 
-1.4437978e-04 0.0000000e+00 -1.5913811e-02 
2.7591196e-03 0.0000000e+00 1.0036493e-06 
2.7591196e-03 0.0000000e+00 1.0036493e-06 
-7.6449704e-06 0.0000000e+00 -1.5549350e-02 
-7.6449704e-06 0.0000000e+00 -1.5549350e-02 
2.7527804e-03 0.0000000e+00 7.0247696e-04 
2.7527804e-03 0.0000000e+00 7.0247696e-04 
1.2596787e-04 0.0000000e+00 -1.5137742e-02 
1.2596787e-04 0.0000000e+00 -1.5137742e-02 
2.7435033e-03 0.0000000e+00 1.4149979e-03 
2.7435033e-03 0.0000000e+00 1.4149979e-03 
2.5593792e-04 0.0000000e+00 -1.4681438e-02 
2.5593792e-04 0.0000000e+00 -1.4681438e-02 
2.7315248e-03 0.0000000e+00 2.1375483e-03 
2.7315248e-03 0.0000000e+00 2.1375483e-03 
3.8174102e-04 0.0000000e+00 -1.4181821e-02 
3.8174102e-04 0.0000000e+00 -1.4181821e-02 
2.7170312e-03 0.0000000e+00 2.8693156e-03 
2.7170312e-03 0.0000000e+00 2.8693156e-03 
5.0298955e-04 0.0000000e+00 -1.3640890e-02 
5.0298955e-04 0.0000000e+00 -1.3640890e-02 
2.7001736e-03 0.0000000e+00 3.6096476e-03 
2.7001736e-03 0.0000000e+00 3.6096476e-03 
6.1947068e-04 0.0000000e+00 -1.3061353e-02 
6.1947068e-04 0.0000000e+00 -1.3061353e-02 
2.6810837e-03 0.0000000e+00 4.3579874e-03 
7.3092737e-04 0.0000000e+00 -1.2444933e-02 
2.6810837e-03 0.0000000e+00 4.3579874e-03 
7.3092737e-04 0.0000000e+00 -1.2444933e-02 
8.3709924e-04 0.0000000e+00 -1.1792916e-02 
2.6599004e-03 0.0000000e+00 5.1137627e-03 
8.3709924e-04 0.0000000e+00 -1.1792916e-02 
2.6599004e-03 0.0000000e+00 5.1137627e-03 
9.3791720e-04 0.0000000e+00 -1.1107420e-02 
2.6368098e-03 0.0000000e+00 5.8762504e-03 
9.3791720e-04 0.0000000e+00 -1.1107420e-02 
2.6368098e-03 0.0000000e+00 5.8762504e-03 
1.0334742e-03 0.0000000e+00 -1.0391069e-02 
1.0334742e-03 0.0000000e+00 -1.0391069e-02 
2.6120355e-03 0.0000000e+00 6.6446255e-03 
2.6120355e-03 0.0000000e+00 6.6446255e-03 
1.1237822e-03 0.0000000e+00 -9.6456705e-03 
1.1237822e-03 0.0000000e+00 -9.6456705e-03 
2.5858066e-03 0.0000000e+00 7.4180495e-03 
2.5858066e-03 0.0000000e+00 7.4180495e-03 
1.2087695e-03 0.0000000e+00 -8.8723412e-03 
1.2087695e-03 0.0000000e+00 -8.8723412e-03 
2.5583322e-03 0.0000000e+00 8.1957801e-03 
2.5583322e-03 0.0000000e+00 8.1957801e-03 
1.2885510e-03 0.0000000e+00 -8.0729193e-03 
1.2885510e-03 0.0000000e+00 -8.0729193e-03 
2.5298210e-03 0.0000000e+00 8.9770774e-03 
2.5298210e-03 0.0000000e+00 8.9770774e-03 
1.3633668e-03 0.0000000e+00 -7.2496115e-03 
1.3633668e-03 0.0000000e+00 -7.2496115e-03 
2.5004692e-03 0.0000000e+00 9.7612541e-03 
2.5004692e-03 0.0000000e+00 9.7612541e-03 
1.4333677e-03 0.0000000e+00 -6.4039930e-03 
1.4333677e-03 0.0000000e+00 -6.4039930e-03 
2.4704108e-03 0.0000000e+00 1.0547849e-02 
2.4704108e-03 0.0000000e+00 1.0547849e-02 
1.4986716e-03 0.0000000e+00 -5.5373450e-03 
1.4986716e-03 0.0000000e+00 -5.5373450e-03 
2.4397645e-03 0.0000000e+00 1.1336449e-02 
2.4397645e-03 0.0000000e+00 1.1336449e-02 
1.5595517e-03 0.0000000e+00 -4.6514464e-03 
1.5595517e-03 0.0000000e+00 -4.6514464e-03 
2.4087255e-03 0.0000000e+00 1.2126383e-02 
2.4087255e-03 0.0000000e+00 1.2126383e-02 
1.6163882e-03 0.0000000e+00 -3.7483961e-03 
1.6163882e-03 0.0000000e+00 -3.7483961e-03 
2.3775425e-03 0.0000000e+00 1.2916809e-02 
2.3775425e-03 0.0000000e+00 1.2916809e-02 
1.6694146e-03 0.0000000e+00 -2.8295592e-03 
1.6694146e-03 0.0000000e+00 -2.8295592e-03 
2.3464420e-03 0.0000000e+00 1.3706955e-02 
2.3464420e-03 0.0000000e+00 1.3706955e-02 
1.7187474e-03 0.0000000e+00 -1.8957493e-03 
1.7187474e-03 0.0000000e+00 -1.8957493e-03 
2.3156253e-03 0.0000000e+00 1.4496129e-02 
2.3156253e-03 0.0000000e+00 1.4496129e-02 
1.7646347e-03 0.0000000e+00 -9.4823531e-04 
1.7646347e-03 0.0000000e+00 -9.4823531e-04 
2.2853033e-03 0.0000000e+00 1.5283614e-02 
2.2853033e-03 0.0000000e+00 1.5283614e-02 
1.8074428e-03 0.0000000e+00 1.1331535e-05 
1.8074428e-03 0.0000000e+00 1.1331535e-05 
2.2556799e-03 0.0000000e+00 1.6068701e-02 
2.2556799e-03 0.0000000e+00 1.6068701e-02 
1.8472605e-03 0.0000000e+00 9.7695469e-04 
1.8472605e-03 0.0000000e+00 9.7695469e-04 
2.2268035e-03 0.0000000e+00 1.6853250e-02 
2.2268035e-03 0.0000000e+00 1.6853250e-02 
1.8916743e-03 0.0000000e+00 2.1484997e-03 
1.8916743e-03 0.0000000e+00 2.1484997e-03 
2.1933940e-03 0.0000000e+00 1.7790413e-02 
2.1933940e-03 0.0000000e+00 1.7790413e-02 
1.9409523e-03 0.0000000e+00 3.5694447e-03 
1.9409523e-03 0.0000000e+00 3.5694447e-03 
2.1555279e-03 0.0000000e+00 1.8907260e-02 
2.1555279e-03 0.0000000e+00 1.8907260e-02 
1.9958175e-03 0.0000000e+00 5.2904531e-03 
1.9958175e-03 0.0000000e+00 5.2904531e-03 
2.1145749e-03 0.0000000e+00 2.0219700e-02 
2.1145749e-03 0.0000000e+00 2.0219700e-02 
2.0497562e-03 0.0000000e+00 7.1181881e-03 
2.0497562e-03 0.0000000e+00 7.1181881e-03 
2.0788307e-03 0.0000000e+00 2.1513566e-02 
2.0788307e-03 0.0000000e+00 2.1513566e-02 
2.1005513e-03 0.0000000e+00 8.9573969e-03 
2.1005513e-03 0.0000000e+00 8.9573969e-03 
2.0489793e-03 0.0000000e+00 2.2786052e-02 
2.0489793e-03 0.0000000e+00 2.2786052e-02 
2.1497872e-03 0.0000000e+00 1.0802270e-02 
2.1497872e-03 0.0000000e+00 1.0802270e-02 
2.0255423e-03 0.0000000e+00 2.4034855e-02 
2.0255423e-03 0.0000000e+00 2.4034855e-02 
2.1998252e-03 0.0000000e+00 1.2644210e-02 
2.1998252e-03 0.0000000e+00 1.2644210e-02 
2.0090497e-03 0.0000000e+00 2.5257501e-02 
2.0090497e-03 0.0000000e+00 2.5257501e-02 
2.2523010e-03 0.0000000e+00 1.4477201e-02 
2.2523010e-03 0.0000000e+00 1.4477201e-02 
2.0001172e-03 0.0000000e+00 2.6450953e-02 
2.0001172e-03 0.0000000e+00 2.6450953e-02 
2.3079341e-03 0.0000000e+00 1.6298507e-02 
2.3079341e-03 0.0000000e+00 1.6298507e-02 
1.9994313e-03 0.0000000e+00 2.7611698e-02 
1.9994313e-03 0.0000000e+00 2.7611698e-02 
2.3681885e-03 0.0000000e+00 1.8102507e-02 
2.3681885e-03 0.0000000e+00 1.8102507e-02 
2.0078228e-03 0.0000000e+00 2.8735294e-02 