# vtk DataFile Version 4.0
vtk output
ASCII
DATASET UNSTRUCTURED_GRID
POINTS 824 float
-6.4148600e-05 1.0000000e-02 -4.4525366e-03 
-1.0680180e-04 1.0000000e-02 -2.8088474e-03 
3.4513260e-04 1.0000000e-02 -6.0450544e-03 
1.3803532e-03 1.0000000e-02 -7.3230534e-03 
6.5829700e-05 1.0000000e-02 -1.1736922e-03 
2.7142144e-03 1.0000000e-02 -8.2851896e-03 
5.0392030e-04 1.0000000e-02 6.5784910e-04 
4.1780764e-03 1.0000000e-02 -9.0342357e-03 
1.1628646e-03 1.0000000e-02 2.4220088e-03 
5.7070961e-03 1.0000000e-02 -9.6390187e-03 
2.0046218e-03 1.0000000e-02 4.1066196e-03 
7.2731595e-03 1.0000000e-02 -1.0140047e-02 
-6.4148600e-05 0.0000000e+00 -4.4525366e-03 
-1.0680180e-04 0.0000000e+00 -2.8088474e-03 
3.4513260e-04 0.0000000e+00 -6.0450544e-03 
1.3803532e-03 0.0000000e+00 -7.3230534e-03 
6.5829700e-05 0.0000000e+00 -1.1736922e-03 
2.9952540e-03 1.0000000e-02 5.7082181e-03 
8.8622628e-03 1.0000000e-02 -1.0562311e-02 
2.7142144e-03 0.0000000e+00 -8.2851896e-03 
5.0392030e-04 0.0000000e+00 6.5784910e-04 
4.1780764e-03 0.0000000e+00 -9.0342357e-03 
1.1628646e-03 0.0000000e+00 2.4220088e-03 
1.0466628e-02 1.0000000e-02 -1.0922252e-02 
4.1067238e-03 1.0000000e-02 7.2284501e-03 
5.7070961e-03 0.0000000e+00 -9.6390187e-03 
2.0046218e-03 0.0000000e+00 4.1066196e-03 
7.2731595e-03 0.0000000e+00 -1.0140047e-02 
1.2081579e-02 1.0000000e-02 -1.1231240e-02 
5.3166988e-03 1.0000000e-02 8.6715129e-03 
2.9952540e-03 0.0000000e+00 5.7082181e-03 
8.8622628e-03 0.0000000e+00 -1.0562311e-02 
1.3704120e-02 1.0000000e-02 -1.1497501e-02 
1.0466628e-02 0.0000000e+00 -1.0922252e-02 
4.1067238e-03 0.0000000e+00 7.2284501e-03 
6.6076374e-03 1.0000000e-02 1.0042624e-02 
1.5332244e-02 1.0000000e-02 -1.1727173e-02 
1.2081579e-02 0.0000000e+00 -1.1231240e-02 
5.3166988e-03 0.0000000e+00 8.6715129e-03 
7.9658343e-03 1.0000000e-02 1.1347144e-02 
1.3704120e-02 0.0000000e+00 -1.1497501e-02 
1.6964543e-02 1.0000000e-02 -1.1925002e-02 
6.6076374e-03 0.0000000e+00 1.0042624e-02 
9.3804686e-03 1.0000000e-02 1.2590236e-02 
1.5332244e-02 0.0000000e+00 -1.1727173e-02 
1.8600004e-02 1.0000000e-02 -1.2094716e-02 
7.9658343e-03 0.0000000e+00 1.1347144e-02 
1.6964543e-02 0.0000000e+00 -1.1925002e-02 
1.0843002e-02 1.0000000e-02 1.3776601e-02 
2.0237876e-02 1.0000000e-02 -1.2239318e-02 
9.3804686e-03 0.0000000e+00 1.2590236e-02 
1.8600004e-02 0.0000000e+00 -1.2094716e-02 
1.2346566e-02 1.0000000e-02 1.4910517e-02 
2.1877591e-02 1.0000000e-02 -1.2361246e-02 
1.0843002e-02 0.0000000e+00 1.3776601e-02 
2.0237876e-02 0.0000000e+00 -1.2239318e-02 
1.3885623e-02 1.0000000e-02 1.5995768e-02 
2.3518711e-02 1.0000000e-02 -1.2462540e-02 
1.2346566e-02 0.0000000e+00 1.4910517e-02 
2.1877591e-02 0.0000000e+00 -1.2361246e-02 
2.5160890e-02 1.0000000e-02 -1.2544903e-02 
1.5455654e-02 1.0000000e-02 1.7035707e-02 
1.3885623e-02 0.0000000e+00 1.5995768e-02 
2.3518711e-02 0.0000000e+00 -1.2462540e-02 
2.6803852e-02 1.0000000e-02 -1.2609772e-02 
1.7052912e-02 1.0000000e-02 1.8033321e-02 
2.5160890e-02 0.0000000e+00 -1.2544903e-02 
1.5455654e-02 0.0000000e+00 1.7035707e-02 
2.8447376e-02 1.0000000e-02 -1.2658389e-02 
2.6803852e-02 0.0000000e+00 -1.2609772e-02 
1.7052912e-02 0.0000000e+00 1.8033321e-02 
1.8674284e-02 1.0000000e-02 1.8991246e-02 
3.0091279e-02 1.0000000e-02 -1.2691814e-02 
2.8447376e-02 0.0000000e+00 -1.2658389e-02 
1.8674284e-02 0.0000000e+00 1.8991246e-02 
2.0317149e-02 1.0000000e-02 1.9911822e-02 
3.0091279e-02 0.0000000e+00 -1.2691814e-02 
3.1735410e-02 1.0000000e-02 -1.2710971e-02 
2.0317149e-02 0.0000000e+00 1.9911822e-02 
2.1979295e-02 1.0000000e-02 2.0797113e-02 
3.1735410e-02 0.0000000e+00 -1.2710971e-02 
3.3379643e-02 1.0000000e-02 -1.2716676e-02 
2.1979295e-02 0.0000000e+00 2.0797113e-02 
2.3658832e-02 1.0000000e-02 2.1648949e-02 
3.3379643e-02 0.0000000e+00 -1.2716676e-02 
3.5023871e-02 1.0000000e-02 -1.2709629e-02 
2.3658832e-02 0.0000000e+00 2.1648949e-02 
2.5354100e-02 1.0000000e-02 2.2469029e-02 
3.5023871e-02 0.0000000e+00 -1.2709629e-02 
3.6668001e-02 1.0000000e-02 -1.2690457e-02 
2.5354100e-02 0.0000000e+00 2.2469029e-02 
2.7063712e-02 1.0000000e-02 2.3258772e-02 
3.6668001e-02 0.0000000e+00 -1.2690457e-02 
3.8312016e-02 1.0000000e-02 -1.2663038e-02 
2.7063712e-02 0.0000000e+00 2.3258772e-02 
3.8312016e-02 0.0000000e+00 -1.2663038e-02 
2.8786417e-02 1.0000000e-02 2.4019532e-02 
3.9956032e-02 1.0000000e-02 -1.2635752e-02 
2.8786417e-02 0.0000000e+00 2.4019532e-02 
3.9956032e-02 0.0000000e+00 -1.2635752e-02 
3.0521135e-02 1.0000000e-02 2.4752486e-02 
4.1600048e-02 1.0000000e-02 -1.2608467e-02 
3.0521135e-02 0.0000000e+00 2.4752486e-02 
4.1600048e-02 0.0000000e+00 -1.2608467e-02 
3.2266919e-02 1.0000000e-02 2.5458676e-02 
4.3299814e-02 1.0000000e-02 -1.2580255e-02 
3.2266919e-02 0.0000000e+00 2.5458676e-02 
4.3299814e-02 0.0000000e+00 -1.2580255e-02 
3.4022902e-02 1.0000000e-02 2.6139111e-02 
4.5339533e-02 1.0000000e-02 -1.2546402e-02 
3.4022902e-02 0.0000000e+00 2.6139111e-02 
4.5339533e-02 0.0000000e+00 -1.2546402e-02 
3.5788340e-02 1.0000000e-02 2.6794623e-02 
4.7787196e-02 1.0000000e-02 -1.2505778e-02 
3.5788340e-02 0.0000000e+00 2.6794623e-02 
3.7562554e-02 1.0000000e-02 2.7425996e-02 
4.7787196e-02 0.0000000e+00 -1.2505778e-02 
3.7562554e-02 0.0000000e+00 2.7425996e-02 
3.9344928e-02 1.0000000e-02 2.8033950e-02 
5.0379113e-02 1.0000000e-02 -1.2462760e-02 
3.9344928e-02 0.0000000e+00 2.8033950e-02 
5.0379113e-02 0.0000000e+00 -1.2462760e-02 
4.1134916e-02 1.0000000e-02 2.8619109e-02 
5.2971029e-02 1.0000000e-02 -1.2419741e-02 
4.1134916e-02 0.0000000e+00 2.8619109e-02 
5.2971029e-02 0.0000000e+00 -1.2419741e-02 
4.2932026e-02 1.0000000e-02 2.9182016e-02 
4.2932026e-02 0.0000000e+00 2.9182016e-02 
5.5562946e-02 1.0000000e-02 -1.2376723e-02 
4.5339682e-02 1.0000000e-02 2.9899231e-02 
5.5562946e-02 0.0000000e+00 -1.2376723e-02 
4.5339682e-02 0.0000000e+00 2.9899231e-02 
5.8154863e-02 1.0000000e-02 -1.2333705e-02 
4.7758221e-02 1.0000000e-02 3.0578844e-02 
5.8154863e-02 0.0000000e+00 -1.2333705e-02 
4.7758221e-02 0.0000000e+00 3.0578844e-02 
6.0746779e-02 1.0000000e-02 -1.2290686e-02 
5.0186760e-02 1.0000000e-02 3.1221807e-02 
6.0746779e-02 0.0000000e+00 -1.2290686e-02 
5.0186760e-02 0.0000000e+00 3.1221807e-02 
6.3338696e-02 1.0000000e-02 -1.2247668e-02 
5.2624513e-02 1.0000000e-02 3.1828903e-02 
6.3338696e-02 0.0000000e+00 -1.2247668e-02 
5.2624513e-02 0.0000000e+00 3.1828903e-02 
5.5070762e-02 1.0000000e-02 3.2400804e-02 
6.5930613e-02 1.0000000e-02 -1.2204650e-02 
5.5070762e-02 0.0000000e+00 3.2400804e-02 
6.5930613e-02 0.0000000e+00 -1.2204650e-02 
5.7524847e-02 1.0000000e-02 3.2938082e-02 
6.8522529e-02 1.0000000e-02 -1.2161631e-02 
5.7524847e-02 0.0000000e+00 3.2938082e-02 
6.8522529e-02 0.0000000e+00 -1.2161631e-02 
5.9986169e-02 1.0000000e-02 3.3441170e-02 
7.1114446e-02 1.0000000e-02 -1.2118613e-02 
5.9986169e-02 0.0000000e+00 3.3441170e-02 
7.1114446e-02 0.0000000e+00 -1.2118613e-02 
6.2454163e-02 1.0000000e-02 3.3910436e-02 
6.2454163e-02 0.0000000e+00 3.3910436e-02 
7.3706362e-02 1.0000000e-02 -1.2075595e-02 
7.3706362e-02 0.0000000e+00 -1.2075595e-02 
6.4928303e-02 1.0000000e-02 3.4346139e-02 
6.4928303e-02 0.0000000e+00 3.4346139e-02 
7.6298279e-02 1.0000000e-02 -1.2032577e-02 
7.6298279e-02 0.0000000e+00 -1.2032577e-02 
6.7408092e-02 1.0000000e-02 3.4748446e-02 
6.7408092e-02 0.0000000e+00 3.4748446e-02 
7.8890196e-02 1.0000000e-02 -1.1989558e-02 
7.8890196e-02 0.0000000e+00 -1.1989558e-02 
6.9893057e-02 1.0000000e-02 3.5117436e-02 
6.9893057e-02 0.0000000e+00 3.5117436e-02 
8.1482112e-02 1.0000000e-02 -1.1946540e-02 
8.1482112e-02 0.0000000e+00 -1.1946540e-02 
7.2382742e-02 1.0000000e-02 3.5453098e-02 
7.2382742e-02 0.0000000e+00 3.5453098e-02 
8.4074029e-02 1.0000000e-02 -1.1903522e-02 
7.4876707e-02 1.0000000e-02 3.5755332e-02 
8.4074029e-02 0.0000000e+00 -1.1903522e-02 
7.4876707e-02 0.0000000e+00 3.5755332e-02 
8.6665946e-02 1.0000000e-02 -1.1860503e-02 
7.7374516e-02 1.0000000e-02 3.6023948e-02 
8.6665946e-02 0.0000000e+00 -1.1860503e-02 
7.7374516e-02 0.0000000e+00 3.6023948e-02 
8.9257862e-02 1.0000000e-02 -1.1817485e-02 
7.9875738e-02 1.0000000e-02 3.6258665e-02 
8.9257862e-02 0.0000000e+00 -1.1817485e-02 
7.9875738e-02 0.0000000e+00 3.6258665e-02 
8.2379940e-02 1.0000000e-02 3.6459105e-02 
9.1849779e-02 1.0000000e-02 -1.1774467e-02 
8.2379940e-02 0.0000000e+00 3.6459105e-02 
9.1849779e-02 0.0000000e+00 -1.1774467e-02 
8.4886681e-02 1.0000000e-02 3.6624786e-02 
9.4441696e-02 1.0000000e-02 -1.1731448e-02 
8.4886681e-02 0.0000000e+00 3.6624786e-02 
9.4441696e-02 0.0000000e+00 -1.1731448e-02 
8.7395510e-02 1.0000000e-02 3.6755108e-02 
8.7395510e-02 0.0000000e+00 3.6755108e-02 
9.7033612e-02 1.0000000e-02 -1.1688430e-02 
9.7033612e-02 0.0000000e+00 -1.1688430e-02 
8.9905951e-02 1.0000000e-02 3.6849401e-02 
8.9905951e-02 0.0000000e+00 3.6849401e-02 
9.9625529e-02 1.0000000e-02 -1.1645412e-02 
9.9625529e-02 0.0000000e+00 -1.1645412e-02 
9.2417505e-02 1.0000000e-02 3.6906832e-02 
9.2417505e-02 0.0000000e+00 3.6906832e-02 
1.0221745e-01 1.0000000e-02 -1.1602393e-02 
1.0221745e-01 0.0000000e+00 -1.1602393e-02 
9.4929640e-02 1.0000000e-02 3.6926425e-02 
9.4929640e-02 0.0000000e+00 3.6926425e-02 
1.0480936e-01 1.0000000e-02 -1.1559375e-02 
1.0480936e-01 0.0000000e+00 -1.1559375e-02 
9.7441776e-02 1.0000000e-02 3.6907077e-02 
9.7441776e-02 0.0000000e+00 3.6907077e-02 
1.0740128e-01 1.0000000e-02 -1.1516357e-02 
1.0740128e-01 0.0000000e+00 -1.1516357e-02 
9.9953281e-02 1.0000000e-02 3.6847529e-02 
9.9953281e-02 0.0000000e+00 3.6847529e-02 
1.0999320e-01 1.0000000e-02 -1.1473339e-02 
1.0246345e-01 1.0000000e-02 3.6746314e-02 
1.0999320e-01 0.0000000e+00 -1.1473339e-02 
1.0246345e-01 0.0000000e+00 3.6746314e-02 
1.0497150e-01 1.0000000e-02 3.6601738e-02 
1.1258511e-01 1.0000000e-02 -1.1430320e-02 
1.0497150e-01 0.0000000e+00 3.6601738e-02 
1.1258511e-01 0.0000000e+00 -1.1430320e-02 
1.0747666e-01 1.0000000e-02 3.6413638e-02 
1.1517703e-01 1.0000000e-02 -1.1387302e-02 
1.0747666e-01 0.0000000e+00 3.6413638e-02 
[...]
POINT_DATA 824
FIELD FieldData 2
DISPLACEMENT 3 824  float
0.0000000e+00 0.0000000e+00 0.0000000e+00 
0.0000000e+00 0.0000000e+00 0.0000000e+00 
0.0000000e+00 0.0000000e+00 0.0000000e+00 
0.0000000e+00 0.0000000e+00 0.0000000e+00 
0.0000000e+00 0.0000000e+00 0.0000000e+00 
0.0000000e+00 0.0000000e+00 0.0000000e+00 
0.0000000e+00 0.0000000e+00 0.0000000e+00 
0.0000000e+00 0.0000000e+00 0.0000000e+00 
0.0000000e+00 0.0000000e+00 0.0000000e+00 
0.0000000e+00 0.0000000e+00 0.0000000e+00 
0.0000000e+00 0.0000000e+00 0.0000000e+00 
0.0000000e+00 0.0000000e+00 0.0000000e+00 
0.0000000e+00 0.0000000e+00 0.0000000e+00 
0.0000000e+00 0.0000000e+00 0.0000000e+00 
0.0000000e+00 0.0000000e+00 0.0000000e+00 
0.0000000e+00 0.0000000e+00 0.0000000e+00 
0.0000000e+00 0.0000000e+00 0.0000000e+00 
0.0000000e+00 0.0000000e+00 0.0000000e+00 
0.0000000e+00 0.0000000e+00 0.0000000e+00 
0.0000000e+00 0.0000000e+00 0.0000000e+00 
0.0000000e+00 0.0000000e+00 0.0000000e+00 
0.0000000e+00 0.0000000e+00 0.0000000e+00 
0.0000000e+00 0.0000000e+00 0.0000000e+00 
0.0000000e+00 0.0000000e+00 0.0000000e+00 
0.0000000e+00 0.0000000e+00 0.0000000e+00 
0.0000000e+00 0.0000000e+00 0.0000000e+00 
0.0000000e+00 0.0000000e+00 0.0000000e+00 
0.0000000e+00 0.0000000e+00 0.0000000e+00 
0.0000000e+00 0.0000000e+00 0.0000000e+00 
0.0000000e+00 0.0000000e+00 0.0000000e+00 
0.0000000e+00 0.0000000e+00 0.0000000e+00 
0.0000000e+00 0.0000000e+00 0.0000000e+00 
0.0000000e+00 0.0000000e+00 0.0000000e+00 
0.0000000e+00 0.0000000e+00 0.0000000e+00 
0.0000000e+00 0.0000000e+00 0.0000000e+00 
0.0000000e+00 0.0000000e+00 0.0000000e+00 
0.0000000e+00 0.0000000e+00 0.0000000e+00 
0.0000000e+00 0.0000000e+00 0.0000000e+00 
0.0000000e+00 0.0000000e+00 0.0000000e+00 
0.0000000e+00 0.0000000e+00 0.0000000e+00 
0.0000000e+00 0.0000000e+00 0.0000000e+00 
0.0000000e+00 0.0000000e+00 0.0000000e+00 
0.0000000e+00 0.0000000e+00 0.0000000e+00 
0.0000000e+00 0.0000000e+00 0.0000000e+00 
0.0000000e+00 0.0000000e+00 0.0000000e+00 
0.0000000e+00 0.0000000e+00 0.0000000e+00 
0.0000000e+00 0.0000000e+00 0.0000000e+00 
0.0000000e+00 0.0000000e+00 0.0000000e+00 
0.0000000e+00 0.0000000e+00 0.0000000e+00 
0.0000000e+00 0.0000000e+00 0.0000000e+00 
0.0000000e+00 0.0000000e+00 0.0000000e+00 
0.0000000e+00 0.0000000e+00 0.0000000e+00 
0.0000000e+00 0.0000000e+00 0.0000000e+00 
0.0000000e+00 0.0000000e+00 0.0000000e+00 
0.0000000e+00 0.0000000e+00 0.0000000e+00 
0.0000000e+00 0.0000000e+00 0.0000000e+00 
0.0000000e+00 0.0000000e+00 0.0000000e+00 
0.0000000e+00 0.0000000e+00 0.0000000e+00 
0.0000000e+00 0.0000000e+00 0.0000000e+00 
0.0000000e+00 0.0000000e+00 0.0000000e+00 
0.0000000e+00 0.0000000e+00 0.0000000e+00 
0.0000000e+00 0.0000000e+00 0.0000000e+00 
0.0000000e+00 0.0000000e+00 0.0000000e+00 
0.0000000e+00 0.0000000e+00 0.0000000e+00 
0.0000000e+00 0.0000000e+00 0.0000000e+00 
0.0000000e+00 0.0000000e+00 0.0000000e+00 
0.0000000e+00 0.0000000e+00 0.0000000e+00 
0.0000000e+00 0.0000000e+00 0.0000000e+00 
0.0000000e+00 0.0000000e+00 0.0000000e+00 
0.0000000e+00 0.0000000e+00 0.0000000e+00 
0.0000000e+00 0.0000000e+00 0.0000000e+00 
0.0000000e+00 0.0000000e+00 0.0000000e+00 
0.0000000e+00 0.0000000e+00 0.0000000e+00 
0.0000000e+00 0.0000000e+00 0.0000000e+00 
0.0000000e+00 0.0000000e+00 0.0000000e+00 
0.0000000e+00 0.0000000e+00 0.0000000e+00 
0.0000000e+00 0.0000000e+00 0.0000000e+00 
0.0000000e+00 0.0000000e+00 0.0000000e+00 
0.0000000e+00 0.0000000e+00 0.0000000e+00 
0.0000000e+00 0.0000000e+00 0.0000000e+00 
0.0000000e+00 0.0000000e+00 0.0000000e+00 
0.0000000e+00 0.0000000e+00 0.0000000e+00 
0.0000000e+00 0.0000000e+00 0.0000000e+00 
0.0000000e+00 0.0000000e+00 0.0000000e+00 
0.0000000e+00 0.0000000e+00 0.0000000e+00 
0.0000000e+00 0.0000000e+00 0.0000000e+00 
0.0000000e+00 0.0000000e+00 0.0000000e+00 
0.0000000e+00 0.0000000e+00 0.0000000e+00 
0.0000000e+00 0.0000000e+00 0.0000000e+00 
0.0000000e+00 0.0000000e+00 0.0000000e+00 
0.0000000e+00 0.0000000e+00 0.0000000e+00 
0.0000000e+00 0.0000000e+00 0.0000000e+00 
0.0000000e+00 0.0000000e+00 0.0000000e+00 
0.0000000e+00 0.0000000e+00 0.0000000e+00 
0.0000000e+00 0.0000000e+00 0.0000000e+00 
0.0000000e+00 0.0000000e+00 0.0000000e+00 
0.0000000e+00 0.0000000e+00 0.0000000e+00 
7.6127869e-04 0.0000000e+00 -9.4126117e-04 
0.0000000e+00 0.0000000e+00 0.0000000e+00 
7.6127869e-04 0.0000000e+00 -9.4126117e-04 
0.0000000e+00 0.0000000e+00 0.0000000e+00 
1.5221697e-03 0.0000000e+00 -1.8817291e-03 
0.0000000e+00 0.0000000e+00 0.0000000e+00 
1.5221697e-03 0.0000000e+00 -1.8817291e-03 
0.0000000e+00 0.0000000e+00 0.0000000e+00 
2.3084008e-03 0.0000000e+00 -2.8532157e-03 
0.0000000e+00 0.0000000e+00 0.0000000e+00 
2.3084008e-03 0.0000000e+00 -2.8532157e-03 
0.0000000e+00 0.0000000e+00 0.0000000e+00 
3.2511909e-03 0.0000000e+00 -4.0177920e-03 
0.0000000e+00 0.0000000e+00 0.0000000e+00 
3.2511909e-03 0.0000000e+00 -4.0177920e-03 
0.0000000e+00 0.0000000e+00 0.0000000e+00 
4.3811683e-03 0.0000000e+00 -5.4132928e-03 
0.0000000e+00 0.0000000e+00 0.0000000e+00 
0.0000000e+00 0.0000000e+00 0.0000000e+00 
4.3811683e-03 0.0000000e+00 -5.4132928e-03 
0.0000000e+00 0.0000000e+00 0.0000000e+00 
2.1834542e-04 0.0000000e+00 -9.5753595e-04 
5.5755513e-03 0.0000000e+00 -6.8882434e-03 
2.1834542e-04 0.0000000e+00 -9.5753595e-04 
5.5755513e-03 0.0000000e+00 -6.8882434e-03 
4.5862302e-04 0.0000000e+00 -1.9166177e-03 
6.7672539e-03 0.0000000e+00 -8.3599579e-03 
4.5862302e-04 0.0000000e+00 -1.9166177e-03 
6.7672539e-03 0.0000000e+00 -8.3599579e-03 
7.1973738e-04 0.0000000e+00 -2.8772436e-03 
7.1973738e-04 0.0000000e+00 -2.8772436e-03 
7.9559195e-03 0.0000000e+00 -9.8281693e-03 
1.0985176e-03 0.0000000e+00 -4.1611633e-03 
7.9559195e-03 0.0000000e+00 -9.8281693e-03 
1.0985176e-03 0.0000000e+00 -4.1611633e-03 
9.1413037e-03 0.0000000e+00 -1.1292628e-02 
1.5106515e-03 0.0000000e+00 -5.4482613e-03 
9.1413037e-03 0.0000000e+00 -1.1292628e-02 
1.5106515e-03 0.0000000e+00 -5.4482613e-03 
1.0323132e-02 0.0000000e+00 -1.2753038e-02 
1.9545930e-03 0.0000000e+00 -6.7387389e-03 
1.0323132e-02 0.0000000e+00 -1.2753038e-02 
1.9545930e-03 0.0000000e+00 -6.7387389e-03 
1.1501077e-02 0.0000000e+00 -1.4209141e-02 
2.4284943e-03 0.0000000e+00 -8.0325210e-03 
1.1501077e-02 0.0000000e+00 -1.4209141e-02 
2.4284943e-03 0.0000000e+00 -8.0325210e-03 
2.9306986e-03 0.0000000e+00 -9.3295750e-03 
1.2674891e-02 0.0000000e+00 -1.5660767e-02 
2.9306986e-03 0.0000000e+00 -9.3295750e-03 
1.2674891e-02 0.0000000e+00 -1.5660767e-02 
3.4597559e-03 0.0000000e+00 -1.0629883e-02 
1.3844468e-02 0.0000000e+00 -1.7107723e-02 
3.4597559e-03 0.0000000e+00 -1.0629883e-02 
1.3844468e-02 0.0000000e+00 -1.7107723e-02 
4.0145269e-03 0.0000000e+00 -1.1933443e-02 
1.5009651e-02 0.0000000e+00 -1.8549749e-02 
4.0145269e-03 0.0000000e+00 -1.1933443e-02 
1.5009651e-02 0.0000000e+00 -1.8549749e-02 
4.5941785e-03 0.0000000e+00 -1.3240344e-02 
4.5941785e-03 0.0000000e+00 -1.3240344e-02 
1.6170185e-02 0.0000000e+00 -1.9986648e-02 
1.6170185e-02 0.0000000e+00 -1.9986648e-02 
5.1978898e-03 0.0000000e+00 -1.4550626e-02 
5.1978898e-03 0.0000000e+00 -1.4550626e-02 
1.7325877e-02 0.0000000e+00 -2.1418292e-02 
1.7325877e-02 0.0000000e+00 -2.1418292e-02 
5.8248678e-03 0.0000000e+00 -1.5864285e-02 
5.8248678e-03 0.0000000e+00 -1.5864285e-02 
1.8476572e-02 0.0000000e+00 -2.2844501e-02 
1.8476572e-02 0.0000000e+00 -2.2844501e-02 
6.4746486e-03 0.0000000e+00 -1.7181439e-02 
6.4746486e-03 0.0000000e+00 -1.7181439e-02 
1.9622144e-02 0.0000000e+00 -2.4265123e-02 
1.9622144e-02 0.0000000e+00 -2.4265123e-02 
7.1468678e-03 0.0000000e+00 -1.8502218e-02 
7.1468678e-03 0.0000000e+00 -1.8502218e-02 
2.0762398e-02 0.0000000e+00 -2.5680016e-02 
7.8410695e-03 0.0000000e+00 -1.9826743e-02 
2.0762398e-02 0.0000000e+00 -2.5680016e-02 
7.8410695e-03 0.0000000e+00 -1.9826743e-02 
2.1897124e-02 0.0000000e+00 -2.7089026e-02 
8.5569433e-03 0.0000000e+00 -2.1155192e-02 
2.1897124e-02 0.0000000e+00 -2.7089026e-02 
8.5569433e-03 0.0000000e+00 -2.1155192e-02 
2.3026235e-02 0.0000000e+00 -2.8491995e-02 
9.2943874e-03 0.0000000e+00 -2.2487751e-02 
2.3026235e-02 0.0000000e+00 -2.8491995e-02 
9.2943874e-03 0.0000000e+00 -2.2487751e-02 
1.0053347e-02 0.0000000e+00 -2.3824604e-02 
2.4149632e-02 0.0000000e+00 -2.9888755e-02 
1.0053347e-02 0.0000000e+00 -2.3824604e-02 
2.4149632e-02 0.0000000e+00 -2.9888755e-02 
1.0833757e-02 0.0000000e+00 -2.5165948e-02 
2.5267131e-02 0.0000000e+00 -3.1279157e-02 
1.0833757e-02 0.0000000e+00 -2.5165948e-02 
2.5267131e-02 0.0000000e+00 -3.1279157e-02 
1.1635667e-02 0.0000000e+00 -2.6512030e-02 
1.1635667e-02 0.0000000e+00 -2.6512030e-02 
2.6378547e-02 0.0000000e+00 -3.2663049e-02 
2.6378547e-02 0.0000000e+00 -3.2663049e-02 
1.2459183e-02 0.0000000e+00 -2.7863086e-02 
1.2459183e-02 0.0000000e+00 -2.7863086e-02 
2.7483647e-02 0.0000000e+00 -3.4040230e-02 
2.7483647e-02 0.0000000e+00 -3.4040230e-02 
1.3304384e-02 0.0000000e+00 -2.9219303e-02 
1.3304384e-02 0.0000000e+00 -2.9219303e-02 
2.8582126e-02 0.0000000e+00 -3.5410413e-02 
2.8582126e-02 0.0000000e+00 -3.5410413e-02 
1.4171218e-02 0.0000000e+00 -3.0581185e-02 
1.4171218e-02 0.0000000e+00 -3.0581185e-02 
2.9673651e-02 0.0000000e+00 -3.6773268e-02 
2.9673651e-02 0.0000000e+00 -3.6773268e-02 
1.5060181e-02 0.0000000e+00 -3.1949661e-02 
1.5060181e-02 0.0000000e+00 -3.1949661e-02 
3.0758063e-02 0.0000000e+00 -3.8128640e-02 
3.0758063e-02 0.0000000e+00 -3.8128640e-02 
1.5972358e-02 0.0000000e+00 -3.3325690e-02 
1.5972358e-02 0.0000000e+00 -3.3325690e-02 
3.1835321e-02 0.0000000e+00 -3.9476436e-02 
1.6908803e-02 0.0000000e+00 -3.4710206e-02 
3.1835321e-02 0.0000000e+00 -3.9476436e-02 
1.6908803e-02 0.0000000e+00 -3.4710206e-02 
1.7870089e-02 0.0000000e+00 -3.6104306e-02 
3.2905294e-02 0.0000000e+00 -4.0816457e-02 
1.7870089e-02 0.0000000e+00 -3.6104306e-02 
3.2905294e-02 0.0000000e+00 -4.0816457e-02 
1.8855776e-02 0.0000000e+00 -3.7508659e-02 
3.3967787e-02 0.0000000e+00 -4.2148473e-02 
1.8855776e-02 0.0000000e+00 -3.7508659e-02 
3.3967787e-02 0.0000000e+00 -4.2148473e-02 
1.9838698e-02 0.0000000e+00 -3.8908558e-02 
1.9838698e-02 0.0000000e+00 -3.8908558e-02 
3.5022605e-02 0.0000000e+00 -4.3472246e-02 
3.5022605e-02 0.0000000e+00 -4.3472246e-02 
2.0808193e-02 0.0000000e+00 -4.0298064e-02 
2.0808193e-02 0.0000000e+00 -4.0298064e-02 
3.6069356e-02 0.0000000e+00 -4.4787484e-02 
3.6069356e-02 0.0000000e+00 -4.4787484e-02 
2.1764684e-02 0.0000000e+00 -4.1677123e-02 
2.1764684e-02 0.0000000e+00 -4.1677123e-02 
3.7107686e-02 0.0000000e+00 -4.6093935e-02 
3.7107686e-02 0.0000000e+00 -4.6093935e-02 
2.2708605e-02 0.0000000e+00 -4.3045629e-02 
2.2708605e-02 0.0000000e+00 -4.3045629e-02 
3.8137523e-02 0.0000000e+00 -4.7391470e-02 
3.8137523e-02 0.0000000e+00 -4.7391470e-02 
2.3640373e-02 0.0000000e+00 -4.4403725e-02 
2.3640373e-02 0.0000000e+00 -4.4403725e-02 
3.9158720e-02 0.0000000e+00 -4.8679877e-02 
3.9158720e-02 0.0000000e+00 -4.8679877e-02 
2.4560759e-02 0.0000000e+00 -4.5751794e-02 
2.4560759e-02 0.0000000e+00 -4.5751794e-02 
4.0171175e-02 0.0000000e+00 -4.9958973e-02 
2.5471473e-02 0.0000000e+00 -4.7089796e-02 
4.0171175e-02 0.0000000e+00 -4.9958973e-02 
2.5471473e-02 0.0000000e+00 -4.7089796e-02 
2.6373913e-02 0.0000000e+00 -4.8417285e-02 
4.1174939e-02 0.0000000e+00 -5.1228743e-02 
2.6373913e-02 0.0000000e+00 -4.8417285e-02 
4.1174939e-02 0.0000000e+00 -5.1228743e-02 
2.7268620e-02 0.0000000e+00 -4.9734247e-02 
4.2169849e-02 0.0000000e+00 -5.2488955e-02 
2.7268620e-02 0.0000000e+00 -4.9734247e-02 
4.2169849e-02 0.0000000e+00 -5.2488955e-02 
2.8156571e-02 0.0000000e+00 -5.1041231e-02 
2.8156571e-02 0.0000000e+00 -5.1041231e-02 
4.3155729e-02 0.0000000e+00 -5.3739379e-02 
4.3155729e-02 0.0000000e+00 -5.3739379e-02 
2.9041091e-02 0.0000000e+00 -5.2338484e-02 
2.9041091e-02 0.0000000e+00 -5.2338484e-02 
4.4132459e-02 0.0000000e+00 -5.4979992e-02 
4.4132459e-02 0.0000000e+00 -5.4979992e-02 
2.9925184e-02 0.0000000e+00 -5.3625476e-02 
2.9925184e-02 0.0000000e+00 -5.3625476e-02 
4.5099766e-02 0.0000000e+00 -5.6210623e-02 
4.5099766e-02 0.0000000e+00 -5.6210623e-02 
3.0809199e-02 0.0000000e+00 -5.4901736e-02 
3.0809199e-02 0.0000000e+00 -5.4901736e-02 
4.6057500e-02 0.0000000e+00 -5.7431112e-02 
4.6057500e-02 0.0000000e+00 -5.7431112e-02 
3.1693265e-02 0.0000000e+00 -5.6166758e-02 
3.1693265e-02 0.0000000e+00 -5.6166758e-02 
4.7005453e-02 0.0000000e+00 -5.8641233e-02 
4.7005453e-02 0.0000000e+00 -5.8641233e-02 
3.2575743e-02 0.0000000e+00 -5.7420567e-02 
3.2575743e-02 0.0000000e+00 -5.7420567e-02 
4.7943407e-02 0.0000000e+00 -5.9840609e-02 
4.7943407e-02 0.0000000e+00 -5.9840609e-02 
3.3454785e-02 0.0000000e+00 -5.8663569e-02 
3.3454785e-02 0.0000000e+00 -5.8663569e-02 
4.8871407e-02 0.0000000e+00 -6.1029155e-02 
4.8871407e-02 0.0000000e+00 -6.1029155e-02 
3.4329951e-02 0.0000000e+00 -5.9895522e-02 
3.4329951e-02 0.0000000e+00 -5.9895522e-02 
4.9789323e-02 0.0000000e+00 -6.2206759e-02 
3.5200614e-02 0.0000000e+00 -6.1115809e-02 
4.9789323e-02 0.0000000e+00 -6.2206759e-02 
3.5200614e-02 0.0000000e+00 -6.1115809e-02 
5.0696781e-02 0.0000000e+00 -6.3373070e-02 
3.6064778e-02 0.0000000e+00 -6.2323891e-02 
5.0696781e-02 0.0000000e+00 -6.3373070e-02 
3.6064778e-02 0.0000000e+00 -6.2323891e-02 
3.6920766e-02 0.0000000e+00 -6.3519870e-02 
5.1593580e-02 0.0000000e+00 -6.4527891e-02 
3.6920766e-02 0.0000000e+00 -6.3519870e-02 
5.1593580e-02 0.0000000e+00 -6.4527891e-02 
3.7768239e-02 0.0000000e+00 -6.4703715e-02 
3.7768239e-02 0.0000000e+00 -6.4703715e-02 
5.2479551e-02 0.0000000e+00 -6.5671066e-02 
5.2479551e-02 0.0000000e+00 -6.5671066e-02 
3.8606915e-02 0.0000000e+00 -6.5875321e-02 
3.8606915e-02 0.0000000e+00 -6.5875321e-02 
5.3354393e-02 0.0000000e+00 -6.6802347e-02 
5.3354393e-02 0.0000000e+00 -6.6802347e-02 
3.9437206e-02 0.0000000e+00 -6.7034863e-02 
3.9437206e-02 0.0000000e+00 -6.7034863e-02 
5.4217838e-02 0.0000000e+00 -6.7921523e-02 
5.4217838e-02 0.0000000e+00 -6.7921523e-02 
4.0259556e-02 0.0000000e+00 -6.8182459e-02 
4.0259556e-02 0.0000000e+00 -6.8182459e-02 
5.5069864e-02 0.0000000e+00 -6.9028388e-02 
5.5069864e-02 0.0000000e+00 -6.9028388e-02 
4.1073876e-02 0.0000000e+00 -6.9317982e-02 
4.1073876e-02 0.0000000e+00 -6.9317982e-02 
5.5910427e-02 0.0000000e+00 -7.0122709e-02 
5.5910427e-02 0.0000000e+00 -7.0122709e-02 
4.1879937e-02 0.0000000e+00 -7.0441066e-02 
4.1879937e-02 0.0000000e+00 -7.0441066e-02 
5.6739170e-02 0.0000000e+00 -7.1204182e-02 
5.6739170e-02 0.0000000e+00 -7.1204182e-02 
4.2677815e-02 0.0000000e+00 -7.1551295e-02 
4.2677815e-02 0.0000000e+00 -7.1551295e-02 
5.7555923e-02 0.0000000e+00 -7.2272713e-02 
5.7555923e-02 0.0000000e+00 -7.2272713e-02 
4.3467422e-02 0.0000000e+00 -7.2647980e-02 
4.3467422e-02 0.0000000e+00 -7.2647980e-02 
5.8360789e-02 0.0000000e+00 -7.3328357e-02 
5.8360789e-02 0.0000000e+00 -7.3328357e-02 
4.4248415e-02 0.0000000e+00 -7.3730586e-02 
4.4248415e-02 0.0000000e+00 -7.3730586e-02 
5.9153723e-02 0.0000000e+00 -7.4371011e-02 
5.9153723e-02 0.0000000e+00 -7.4371011e-02 
4.5020533e-02 0.0000000e+00 -7.4798769e-02 
4.5020533e-02 0.0000000e+00 -7.4798769e-02 
5.9934500e-02 0.0000000e+00 -7.5400535e-02 
5.9934500e-02 0.0000000e+00 -7.5400535e-02 
4.5783349e-02 0.0000000e+00 -7.5852257e-02 
4.5783349e-02 0.0000000e+00 -7.5852257e-02 
6.0702643e-02 0.0000000e+00 -7.6416530e-02 
6.0702643e-02 0.0000000e+00 -7.6416530e-02 
4.6536751e-02 0.0000000e+00 -7.6891310e-02 
4.6536751e-02 0.0000000e+00 -7.6891310e-02 
6.1457787e-02 0.0000000e+00 -7.7418539e-02 
4.7280814e-02 0.0000000e+00 -7.7916176e-02 
6.1457787e-02 0.0000000e+00 -7.7418539e-02 
4.7280814e-02 0.0000000e+00 -7.7916176e-02 
4.8015408e-02 0.0000000e+00 -7.8926790e-02 
6.2199774e-02 0.0000000e+00 -7.8406340e-02 
4.8015408e-02 0.0000000e+00 -7.8926790e-02 
6.2199774e-02 0.0000000e+00 -7.8406340e-02 
4.8740283e-02 0.0000000e+00 -7.9923055e-02 
6.2928292e-02 0.0000000e+00 -7.9379753e-02 
4.8740283e-02 0.0000000e+00 -7.9923055e-02 
6.2928292e-02 0.0000000e+00 -7.9379753e-02 
4.9455203e-02 0.0000000e+00 -8.0904878e-02 
4.9455203e-02 0.0000000e+00 -8.0904878e-02 
6.3642843e-02 0.0000000e+00 -8.0338421e-02 
6.3642843e-02 0.0000000e+00 -8.0338421e-02 
5.0160103e-02 0.0000000e+00 -8.1872241e-02 
5.0160103e-02 0.0000000e+00 -8.1872241e-02 
6.4342712e-02 0.0000000e+00 -8.1281844e-02 
6.4342712e-02 0.0000000e+00 -8.1281844e-02 
5.0854990e-02 0.0000000e+00 -8.2825192e-02 
5.0854990e-02 0.0000000e+00 -8.2825192e-02 
6.5027447e-02 0.0000000e+00 -8.2209804e-02 
6.5027447e-02 0.0000000e+00 -8.2209804e-02 
5.1540095e-02 0.0000000e+00 -8.3763767e-02 
5.1540095e-02 0.0000000e+00 -8.3763767e-02 
6.5696666e-02 0.0000000e+00 -8.3122066e-02 
6.5696666e-02 0.0000000e+00 -8.3122066e-02 
5.2215648e-02 0.0000000e+00 -8.4687970e-02 
5.2215648e-02 0.0000000e+00 -8.4687970e-02 
6.6349822e-02 0.0000000e+00 -8.4018209e-02 
6.6349822e-02 0.0000000e+00 -8.4018209e-02 
5.2881476e-02 0.0000000e+00 -8.5597525e-02 
5.2881476e-02 0.0000000e+00 -8.5597525e-02 
6.6987121e-02 0.0000000e+00 -8.4897923e-02 
6.6987121e-02 0.0000000e+00 -8.4897923e-02 
5.3537189e-02 0.0000000e+00 -8.6491834e-02 
5.3537189e-02 0.0000000e+00 -8.6491834e-02 
6.7608950e-02 0.0000000e+00 -8.5761066e-02 
6.7608950e-02 0.0000000e+00 -8.5761066e-02 
5.4182776e-02 0.0000000e+00 -8.7370614e-02 
5.4182776e-02 0.0000000e+00 -8.7370614e-02 
6.8215021e-02 0.0000000e+00 -8.6607454e-02 
6.8215021e-02 0.0000000e+00 -8.6607454e-02 
5.4818415e-02 0.0000000e+00 -8.8233877e-02 
5.4818415e-02 0.0000000e+00 -8.8233877e-02 
6.8804638e-02 0.0000000e+00 -8.7436510e-02 
6.8804638e-02 0.0000000e+00 -8.7436510e-02 
5.5444010e-02 0.0000000e+00 -8.9081516e-02 
5.5444010e-02 0.0000000e+00 -8.9081516e-02 
6.9377609e-02 0.0000000e+00 -8.8247905e-02 
6.9377609e-02 0.0000000e+00 -8.8247905e-02 
5.6059302e-02 0.0000000e+00 -8.9913219e-02 
5.6059302e-02 0.0000000e+00 -8.9913219e-02 
6.9934257e-02 0.0000000e+00 -8.9041865e-02 
6.9934257e-02 0.0000000e+00 -8.9041865e-02 
5.6663643e-02 0.0000000e+00 -9.0728344e-02 
5.6663643e-02 0.0000000e+00 -9.0728344e-02 
7.0474239e-02 0.0000000e+00 -8.9818247e-02 
7.0474239e-02 0.0000000e+00 -8.9818247e-02 
5.7256248e-02 0.0000000e+00 -9.1526115e-02 
5.7256248e-02 0.0000000e+00 -9.1526115e-02 
7.0997039e-02 0.0000000e+00 -9.0576752e-02 
7.0997039e-02 0.0000000e+00 -9.0576752e-02 
5.7833955e-02 0.0000000e+00 -9.2302439e-02 
5.7833955e-02 0.0000000e+00 -9.2302439e-02 
7.1503838e-02 0.0000000e+00 -9.1319244e-02 
7.1503838e-02 0.0000000e+00 -9.1319244e-02 
5.8511264e-02 0.0000000e+00 -9.3210975e-02 
5.8511264e-02 0.0000000e+00 -9.3210975e-02 
7.2087790e-02 0.0000000e+00 -9.2185077e-02 
7.2087790e-02 0.0000000e+00 -9.2185077e-02 
5.9301073e-02 0.0000000e+00 -9.4268572e-02 
5.9301073e-02 0.0000000e+00 -9.4268572e-02 
7.2751565e-02 0.0000000e+00 -9.3186364e-02 
7.2751565e-02 0.0000000e+00 -9.3186364e-02 
6.0216302e-02 0.0000000e+00 -9.5492212e-02 
6.0216302e-02 0.0000000e+00 -9.5492212e-02 
7.3487633e-02 0.0000000e+00 -9.4322161e-02 
7.3487633e-02 0.0000000e+00 -9.4322161e-02 
6.1142167e-02 0.0000000e+00 -9.6728545e-02 
6.1142167e-02 0.0000000e+00 -9.6728545e-02 
7.4168200e-02 0.0000000e+00 -9.5401489e-02 
7.4168200e-02 0.0000000e+00 -9.5401489e-02 
6.2027464e-02 0.0000000e+00 -9.7909542e-02 
6.2027464e-02 0.0000000e+00 -9.7909542e-02 
7.4791154e-02 0.0000000e+00 -9.6423740e-02 
7.4791154e-02 0.0000000e+00 -9.6423740e-02 
6.2869639e-02 0.0000000e+00 -9.9032389e-02 
6.2869639e-02 0.0000000e+00 -9.9032389e-02 
7.5351965e-02 0.0000000e+00 -9.7384793e-02 
7.5351965e-02 0.0000000e+00 -9.7384793e-02 
6.3664115e-02 0.0000000e+00 -1.0009256e-01 
6.3664115e-02 0.0000000e+00 -1.0009256e-01 
7.5847332e-02 0.0000000e+00 -9.8282049e-02 
7.5847332e-02 0.0000000e+00 -9.8282049e-02 
6.4406234e-02 0.0000000e+00 -1.0108607e-01 
6.4406234e-02 0.0000000e+00 -1.0108607e-01 
7.6273655e-02 0.0000000e+00 -9.9114044e-02 
7.6273655e-02 0.0000000e+00 -9.9114044e-02 
6.5093251e-02 0.0000000e+00 -1.0201154e-01 
6.5093251e-02 0.0000000e+00 -1.0201154e-01 
7.6626765e-02 0.0000000e+00 -9.9877783e-02 
7.6626765e-02 0.0000000e+00 -9.9877783e-02 
6.5724315e-02 0.0000000e+00 -1.0286998e-01 