# vtk DataFile Version 4.0
vtk output
ASCII
DATASET UNSTRUCTURED_GRID
POINTS 824 float
-6.4148600e-05 1.0000000e-02 -4.4525366e-03 
-1.0680180e-04 1.0000000e-02 -2.8088474e-03 
3.4513260e-04 1.0000000e-02 -6.0450544e-03 
1.3803532e-03 1.0000000e-02 -7.3230534e-03 
6.5829700e-05 1.0000000e-02 -1.1736922e-03 
2.7142144e-03 1.0000000e-02 -8.2851896e-03 
5.0392030e-04 1.0000000e-02 6.5784910e-04 
4.1780764e-03 1.0000000e-02 -9.0342357e-03 
1.1628646e-03 1.0000000e-02 2.4220088e-03 
5.7070961e-03 1.0000000e-02 -9.6390187e-03 
2.0046218e-03 1.0000000e-02 4.1066196e-03 
7.2731595e-03 1.0000000e-02 -1.0140047e-02 
-6.4148600e-05 0.0000000e+00 -4.4525366e-03 
-1.0680180e-04 0.0000000e+00 -2.8088474e-03 
3.4513260e-04 0.0000000e+00 -6.0450544e-03 
1.3803532e-03 0.0000000e+00 -7.3230534e-03 
6.5829700e-05 0.0000000e+00 -1.1736922e-03 
2.9952540e-03 1.0000000e-02 5.7082181e-03 
8.8622628e-03 1.0000000e-02 -1.0562311e-02 
2.7142144e-03 0.0000000e+00 -8.2851896e-03 
5.0392030e-04 0.0000000e+00 6.5784910e-04 
4.1780764e-03 0.0000000e+00 -9.0342357e-03 
1.1628646e-03 0.0000000e+00 2.4220088e-03 
1.0466628e-02 1.0000000e-02 -1.0922252e-02 
4.1067238e-03 1.0000000e-02 7.2284501e-03 
5.7070961e-03 0.0000000e+00 -9.6390187e-03 
2.0046218e-03 0.0000000e+00 4.1066196e-03 
7.2731595e-03 0.0000000e+00 -1.0140047e-02 
1.2081579e-02 1.0000000e-02 -1.1231240e-02 
5.3166988e-03 1.0000000e-02 8.6715129e-03 
2.9952540e-03 0.0000000e+00 5.7082181e-03 
8.8622628e-03 0.0000000e+00 -1.0562311e-02 
1.3704120e-02 1.0000000e-02 -1.1497501e-02 
1.0466628e-02 0.0000000e+00 -1.0922252e-02 
4.1067238e-03 0.0000000e+00 7.2284501e-03 
6.6076374e-03 1.0000000e-02 1.0042624e-02 
1.5332244e-02 1.0000000e-02 -1.1727173e-02 
1.2081579e-02 0.0000000e+00 -1.1231240e-02 
5.3166988e-03 0.0000000e+00 8.6715129e-03 
7.9658343e-03 1.0000000e-02 1.1347144e-02 
1.3704120e-02 0.0000000e+00 -1.1497501e-02 
1.6964543e-02 1.0000000e-02 -1.1925002e-02 
6.6076374e-03 0.0000000e+00 1.0042624e-02 
9.3804686e-03 1.0000000e-02 1.2590236e-02 
1.5332244e-02 0.0000000e+00 -1.1727173e-02 
1.8600004e-02 1.0000000e-02 -1.2094716e-02 
7.9658343e-03 0.0000000e+00 1.1347144e-02 
1.6964543e-02 0.0000000e+00 -1.1925002e-02 
1.0843002e-02 1.0000000e-02 1.3776601e-02 
2.0237876e-02 1.0000000e-02 -1.2239318e-02 
9.3804686e-03 0.0000000e+00 1.2590236e-02 
1.8600004e-02 0.0000000e+00 -1.2094716e-02 
1.2346566e-02 1.0000000e-02 1.4910517e-02 
2.1877591e-02 1.0000000e-02 -1.2361246e-02 
1.0843002e-02 0.0000000e+00 1.3776601e-02 
2.0237876e-02 0.0000000e+00 -1.2239318e-02 
1.3885623e-02 1.0000000e-02 1.5995768e-02 
2.3518711e-02 1.0000000e-02 -1.2462540e-02 
1.2346566e-02 0.0000000e+00 1.4910517e-02 
2.1877591e-02 0.0000000e+00 -1.2361246e-02 
2.5160890e-02 1.0000000e-02 -1.2544903e-02 
1.5455654e-02 1.0000000e-02 1.7035707e-02 
1.3885623e-02 0.0000000e+00 1.5995768e-02 
2.3518711e-02 0.0000000e+00 -1.2462540e-02 
2.6803852e-02 1.0000000e-02 -1.2609772e-02 
1.7052912e-02 1.0000000e-02 1.8033321e-02 
2.5160890e-02 0.0000000e+00 -1.2544903e-02 
1.5455654e-02 0.0000000e+00 1.7035707e-02 
2.8447376e-02 1.0000000e-02 -1.2658389e-02 
2.6803852e-02 0.0000000e+00 -1.2609772e-02 
1.7052912e-02 0.0000000e+00 1.8033321e-02 
1.8674284e-02 1.0000000e-02 1.8991246e-02 
3.0091279e-02 1.0000000e-02 -1.2691814e-02 
2.8447376e-02 0.0000000e+00 -1.2658389e-02 
1.8674284e-02 0.0000000e+00 1.8991246e-02 
2.0317149e-02 1.0000000e-02 1.9911822e-02 
3.0091279e-02 0.0000000e+00 -1.2691814e-02 
3.1735410e-02 1.0000000e-02 -1.2710971e-02 
2.0317149e-02 0.0000000e+00 1.9911822e-02 
2.1979295e-02 1.0000000e-02 2.0797113e-02 
3.1735410e-02 0.0000000e+00 -1.2710971e-02 
3.3379643e-02 1.0000000e-02 -1.2716676e-02 
2.1979295e-02 0.0000000e+00 2.0797113e-02 
2.3658832e-02 1.0000000e-02 2.1648949e-02 
3.3379643e-02 0.0000000e+00 -1.2716676e-02 
3.5023871e-02 1.0000000e-02 -1.2709629e-02 
2.3658832e-02 0.0000000e+00 2.1648949e-02 
2.5354100e-02 1.0000000e-02 2.2469029e-02 
3.5023871e-02 0.0000000e+00 -1.2709629e-02 
3.6668001e-02 1.0000000e-02 -1.2690457e-02 
2.5354100e-02 0.0000000e+00 2.2469029e-02 
2.7063712e-02 1.0000000e-02 2.3258772e-02 
3.6668001e-02 0.0000000e+00 -1.2690457e-02 
3.8312016e-02 1.0000000e-02 -1.2663038e-02 
2.7063712e-02 0.0000000e+00 2.3258772e-02 
3.8312016e-02 0.0000000e+00 -1.2663038e-02 
2.8786417e-02 1.0000000e-02 2.4019532e-02 
3.9956032e-02 1.0000000e-02 -1.2635752e-02 
2.8786417e-02 0.0000000e+00 2.4019532e-02 
3.9956032e-02 0.0000000e+00 -1.2635752e-02 
3.0521135e-02 1.0000000e-02 2.4752486e-02 
4.1600048e-02 1.0000000e-02 -1.2608467e-02 
3.0521135e-02 0.0000000e+00 2.4752486e-02 
4.1600048e-02 0.0000000e+00 -1.2608467e-02 
3.2266919e-02 1.0000000e-02 2.5458676e-02 
4.3299814e-02 1.0000000e-02 -1.2580255e-02 
3.2266919e-02 0.0000000e+00 2.5458676e-02 
4.3299814e-02 0.0000000e+00 -1.2580255e-02 
3.4022902e-02 1.0000000e-02 2.6139111e-02 
4.5339533e-02 1.0000000e-02 -1.2546402e-02 
3.4022902e-02 0.0000000e+00 2.6139111e-02 
4.5339533e-02 0.0000000e+00 -1.2546402e-02 
3.5788340e-02 1.0000000e-02 2.6794623e-02 
4.7787196e-02 1.0000000e-02 -1.2505778e-02 
3.5788340e-02 0.0000000e+00 2.6794623e-02 
3.7562554e-02 1.0000000e-02 2.7425996e-02 
4.7787196e-02 0.0000000e+00 -1.2505778e-02 
3.7562554e-02 0.0000000e+00 2.7425996e-02 
3.9344928e-02 1.0000000e-02 2.8033950e-02 
5.0379113e-02 1.0000000e-02 -1.2462760e-02 
3.9344928e-02 0.0000000e+00 2.8033950e-02 
5.0379113e-02 0.0000000e+00 -1.2462760e-02 
4.1134916e-02 1.0000000e-02 2.8619109e-02 
5.2971029e-02 1.0000000e-02 -1.2419741e-02 
4.1134916e-02 0.0000000e+00 2.8619109e-02 
5.2971029e-02 0.0000000e+00 -1.2419741e-02 
4.2932026e-02 1.0000000e-02 2.9182016e-02 
4.2932026e-02 0.0000000e+00 2.9182016e-02 
5.5562946e-02 1.0000000e-02 -1.2376723e-02 
4.5339682e-02 1.0000000e-02 2.9899231e-02 
5.5562946e-02 0.0000000e+00 -1.2376723e-02 
4.5339682e-02 0.0000000e+00 2.9899231e-02 
5.8154863e-02 1.0000000e-02 -1.2333705e-02 
4.7758221e-02 1.0000000e-02 3.0578844e-02 
5.8154863e-02 0.0000000e+00 -1.2333705e-02 
4.7758221e-02 0.0000000e+00 3.0578844e-02 
6.0746779e-02 1.0000000e-02 -1.2290686e-02 
5.0186760e-02 1.0000000e-02 3.1221807e-02 
6.0746779e-02 0.0000000e+00 -1.2290686e-02 
5.0186760e-02 0.0000000e+00 3.1221807e-02 
6.3338696e-02 1.0000000e-02 -1.2247668e-02 
5.2624513e-02 1.0000000e-02 3.1828903e-02 
6.3338696e-02 0.0000000e+00 -1.2247668e-02 
5.2624513e-02 0.0000000e+00 3.1828903e-02 
5.5070762e-02 1.0000000e-02 3.2400804e-02 
6.5930613e-02 1.0000000e-02 -1.2204650e-02 
5.5070762e-02 0.0000000e+00 3.2400804e-02 
6.5930613e-02 0.0000000e+00 -1.2204650e-02 
5.7524847e-02 1.0000000e-02 3.2938082e-02 
6.8522529e-02 1.0000000e-02 -1.2161631e-02 
5.7524847e-02 0.0000000e+00 3.2938082e-02 
6.8522529e-02 0.0000000e+00 -1.2161631e-02 
5.9986169e-02 1.0000000e-02 3.3441170e-02 
7.1114446e-02 1.0000000e-02 -1.2118613e-02 
5.9986169e-02 0.0000000e+00 3.3441170e-02 
7.1114446e-02 0.0000000e+00 -1.2118613e-02 
6.2454163e-02 1.0000000e-02 3.3910436e-02 
6.2454163e-02 0.0000000e+00 3.3910436e-02 
7.3706362e-02 1.0000000e-02 -1.2075595e-02 
7.3706362e-02 0.0000000e+00 -1.2075595e-02 
6.4928303e-02 1.0000000e-02 3.4346139e-02 
6.4928303e-02 0.0000000e+00 3.4346139e-02 
7.6298279e-02 1.0000000e-02 -1.2032577e-02 
7.6298279e-02 0.0000000e+00 -1.2032577e-02 
6.7408092e-02 1.0000000e-02 3.4748446e-02 
6.7408092e-02 0.0000000e+00 3.4748446e-02 
7.8890196e-02 1.0000000e-02 -1.1989558e-02 
7.8890196e-02 0.0000000e+00 -1.1989558e-02 
6.9893057e-02 1.0000000e-02 3.5117436e-02 
6.9893057e-02 0.0000000e+00 3.5117436e-02 
8.1482112e-02 1.0000000e-02 -1.1946540e-02 
8.1482112e-02 0.0000000e+00 -1.1946540e-02 
7.2382742e-02 1.0000000e-02 3.5453098e-02 
7.2382742e-02 0.0000000e+00 3.5453098e-02 
8.4074029e-02 1.0000000e-02 -1.1903522e-02 
7.4876707e-02 1.0000000e-02 3.5755332e-02 
8.4074029e-02 0.0000000e+00 -1.1903522e-02 
7.4876707e-02 0.0000000e+00 3.5755332e-02 
8.6665946e-02 1.0000000e-02 -1.1860503e-02 
7.7374516e-02 1.0000000e-02 3.6023948e-02 
8.6665946e-02 0.0000000e+00 -1.1860503e-02 
7.7374516e-02 0.0000000e+00 3.6023948e-02 
8.9257862e-02 1.0000000e-02 -1.1817485e-02 
7.9875738e-02 1.0000000e-02 3.6258665e-02 
8.9257862e-02 0.0000000e+00 -1.1817485e-02 
7.9875738e-02 0.0000000e+00 3.6258665e-02 
8.2379940e-02 1.0000000e-02 3.6459105e-02 
9.1849779e-02 1.0000000e-02 -1.1774467e-02 
8.2379940e-02 0.0000000e+00 3.6459105e-02 
9.1849779e-02 0.0000000e+00 -1.1774467e-02 
8.4886681e-02 1.0000000e-02 3.6624786e-02 
9.4441696e-02 1.0000000e-02 -1.1731448e-02 
8.4886681e-02 0.0000000e+00 3.6624786e-02 
9.4441696e-02 0.0000000e+00 -1.1731448e-02 
8.7395510e-02 1.0000000e-02 3.6755108e-02 
8.7395510e-02 0.0000000e+00 3.6755108e-02 
9.7033612e-02 1.0000000e-02 -1.1688430e-02 
9.7033612e-02 0.0000000e+00 -1.1688430e-02 
8.9905951e-02 1.0000000e-02 3.6849401e-02 
8.9905951e-02 0.0000000e+00 3.6849401e-02 
9.9625529e-02 1.0000000e-02 -1.1645412e-02 
9.9625529e-02 0.0000000e+00 -1.1645412e-02 
9.2417505e-02 1.0000000e-02 3.6906832e-02 
9.2417505e-02 0.0000000e+00 3.6906832e-02 
1.0221745e-01 1.0000000e-02 -1.1602393e-02 
1.0221745e-01 0.0000000e+00 -1.1602393e-02 
9.4929640e-02 1.0000000e-02 3.6926425e-02 
9.4929640e-02 0.0000000e+00 3.6926425e-02 
1.0480936e-01 1.0000000e-02 -1.1559375e-02 
1.0480936e-01 0.0000000e+00 -1.1559375e-02 
9.7441776e-02 1.0000000e-02 3.6907077e-02 
9.7441776e-02 0.0000000e+00 3.6907077e-02 
1.0740128e-01 1.0000000e-02 -1.1516357e-02 
1.0740128e-01 0.0000000e+00 -1.1516357e-02 
9.9953281e-02 1.0000000e-02 3.6847529e-02 
9.9953281e-02 0.0000000e+00 3.6847529e-02 
1.0999320e-01 1.0000000e-02 -1.1473339e-02 
1.0246345e-01 1.0000000e-02 3.6746314e-02 
1.0999320e-01 0.0000000e+00 -1.1473339e-02 
1.0246345e-01 0.0000000e+00 3.6746314e-02 
1.0497150e-01 1.0000000e-02 3.6601738e-02 
1.1258511e-01 1.0000000e-02 -1.1430320e-02 
1.0497150e-01 0.0000000e+00 3.6601738e-02 
1.1258511e-01 0.0000000e+00 -1.1430320e-02 
1.0747666e-01 1.0000000e-02 3.6413638e-02 
1.1517703e-01 1.0000000e-02 -1.1387302e-02 
1.0747666e-01 0.0000000e+00 3.6413638e-02 
[...]
POINT_DATA 824
FIELD FieldData 2
DISPLACEMENT 3 824  float
0.0000000e+00 0.0000000e+00 0.0000000e+00 
0.0000000e+00 0.0000000e+00 0.0000000e+00 
0.0000000e+00 0.0000000e+00 0.0000000e+00 
0.0000000e+00 0.0000000e+00 0.0000000e+00 
0.0000000e+00 0.0000000e+00 0.0000000e+00 
0.0000000e+00 0.0000000e+00 0.0000000e+00 
0.0000000e+00 0.0000000e+00 0.0000000e+00 
0.0000000e+00 0.0000000e+00 0.0000000e+00 
0.0000000e+00 0.0000000e+00 0.0000000e+00 
0.0000000e+00 0.0000000e+00 0.0000000e+00 
0.0000000e+00 0.0000000e+00 0.0000000e+00 
0.0000000e+00 0.0000000e+00 0.0000000e+00 
0.0000000e+00 0.0000000e+00 0.0000000e+00 
0.0000000e+00 0.0000000e+00 0.0000000e+00 
0.0000000e+00 0.0000000e+00 0.0000000e+00 
0.0000000e+00 0.0000000e+00 0.0000000e+00 
0.0000000e+00 0.0000000e+00 0.0000000e+00 
0.0000000e+00 0.0000000e+00 0.0000000e+00 
0.0000000e+00 0.0000000e+00 0.0000000e+00 
0.0000000e+00 0.0000000e+00 0.0000000e+00 
0.0000000e+00 0.0000000e+00 0.0000000e+00 
0.0000000e+00 0.0000000e+00 0.0000000e+00 
0.0000000e+00 0.0000000e+00 0.0000000e+00 
0.0000000e+00 0.0000000e+00 0.0000000e+00 
0.0000000e+00 0.0000000e+00 0.0000000e+00 
0.0000000e+00 0.0000000e+00 0.0000000e+00 
0.0000000e+00 0.0000000e+00 0.0000000e+00 
0.0000000e+00 0.0000000e+00 0.0000000e+00 
0.0000000e+00 0.0000000e+00 0.0000000e+00 
0.0000000e+00 0.0000000e+00 0.0000000e+00 
0.0000000e+00 0.0000000e+00 0.0000000e+00 
0.0000000e+00 0.0000000e+00 0.0000000e+00 
0.0000000e+00 0.0000000e+00 0.0000000e+00 
0.0000000e+00 0.0000000e+00 0.0000000e+00 
0.0000000e+00 0.0000000e+00 0.0000000e+00 
0.0000000e+00 0.0000000e+00 0.0000000e+00 
0.0000000e+00 0.0000000e+00 0.0000000e+00 
0.0000000e+00 0.0000000e+00 0.0000000e+00 
0.0000000e+00 0.0000000e+00 0.0000000e+00 
0.0000000e+00 0.0000000e+00 0.0000000e+00 
0.0000000e+00 0.0000000e+00 0.0000000e+00 
0.0000000e+00 0.0000000e+00 0.0000000e+00 
0.0000000e+00 0.0000000e+00 0.0000000e+00 
0.0000000e+00 0.0000000e+00 0.0000000e+00 
0.0000000e+00 0.0000000e+00 0.0000000e+00 
0.0000000e+00 0.0000000e+00 0.0000000e+00 
0.0000000e+00 0.0000000e+00 0.0000000e+00 
0.0000000e+00 0.0000000e+00 0.0000000e+00 
0.0000000e+00 0.0000000e+00 0.0000000e+00 
0.0000000e+00 0.0000000e+00 0.0000000e+00 
0.0000000e+00 0.0000000e+00 0.0000000e+00 
0.0000000e+00 0.0000000e+00 0.0000000e+00 
0.0000000e+00 0.0000000e+00 0.0000000e+00 
0.0000000e+00 0.0000000e+00 0.0000000e+00 
0.0000000e+00 0.0000000e+00 0.0000000e+00 
0.0000000e+00 0.0000000e+00 0.0000000e+00 
0.0000000e+00 0.0000000e+00 0.0000000e+00 
0.0000000e+00 0.0000000e+00 0.0000000e+00 
0.0000000e+00 0.0000000e+00 0.0000000e+00 
0.0000000e+00 0.0000000e+00 0.0000000e+00 
0.0000000e+00 0.0000000e+00 0.0000000e+00 
0.0000000e+00 0.0000000e+00 0.0000000e+00 
0.0000000e+00 0.0000000e+00 0.0000000e+00 
0.0000000e+00 0.0000000e+00 0.0000000e+00 
0.0000000e+00 0.0000000e+00 0.0000000e+00 
0.0000000e+00 0.0000000e+00 0.0000000e+00 
0.0000000e+00 0.0000000e+00 0.0000000e+00 
0.0000000e+00 0.0000000e+00 0.0000000e+00 
0.0000000e+00 0.0000000e+00 0.0000000e+00 
0.0000000e+00 0.0000000e+00 0.0000000e+00 
0.0000000e+00 0.0000000e+00 0.0000000e+00 
0.0000000e+00 0.0000000e+00 0.0000000e+00 
0.0000000e+00 0.0000000e+00 0.0000000e+00 
0.0000000e+00 0.0000000e+00 0.0000000e+00 
0.0000000e+00 0.0000000e+00 0.0000000e+00 
0.0000000e+00 0.0000000e+00 0.0000000e+00 
0.0000000e+00 0.0000000e+00 0.0000000e+00 
0.0000000e+00 0.0000000e+00 0.0000000e+00 
0.0000000e+00 0.0000000e+00 0.0000000e+00 
0.0000000e+00 0.0000000e+00 0.0000000e+00 
0.0000000e+00 0.0000000e+00 0.0000000e+00 
0.0000000e+00 0.0000000e+00 0.0000000e+00 
0.0000000e+00 0.0000000e+00 0.0000000e+00 
0.0000000e+00 0.0000000e+00 0.0000000e+00 
0.0000000e+00 0.0000000e+00 0.0000000e+00 
0.0000000e+00 0.0000000e+00 0.0000000e+00 
0.0000000e+00 0.0000000e+00 0.0000000e+00 
0.0000000e+00 0.0000000e+00 0.0000000e+00 
0.0000000e+00 0.0000000e+00 0.0000000e+00 
0.0000000e+00 0.0000000e+00 0.0000000e+00 
0.0000000e+00 0.0000000e+00 0.0000000e+00 
0.0000000e+00 0.0000000e+00 0.0000000e+00 
0.0000000e+00 0.0000000e+00 0.0000000e+00 
0.0000000e+00 0.0000000e+00 0.0000000e+00 
0.0000000e+00 0.0000000e+00 0.0000000e+00 
0.0000000e+00 0.0000000e+00 0.0000000e+00 
0.0000000e+00 0.0000000e+00 0.0000000e+00 
-3.7201659e-04 0.0000000e+00 1.3795892e-03 
0.0000000e+00 0.0000000e+00 0.0000000e+00 
-3.7201659e-04 0.0000000e+00 1.3795892e-03 
0.0000000e+00 0.0000000e+00 0.0000000e+00 
-7.3556336e-04 0.0000000e+00 2.7487546e-03 
0.0000000e+00 0.0000000e+00 0.0000000e+00 
-7.3556336e-04 0.0000000e+00 2.7487546e-03 
0.0000000e+00 0.0000000e+00 0.0000000e+00 
-1.1021107e-03 0.0000000e+00 4.1527785e-03 
0.0000000e+00 0.0000000e+00 0.0000000e+00 
-1.1021107e-03 0.0000000e+00 4.1527785e-03 
0.0000000e+00 0.0000000e+00 0.0000000e+00 
-1.5283581e-03 0.0000000e+00 5.8205873e-03 
0.0000000e+00 0.0000000e+00 0.0000000e+00 
-1.5283581e-03 0.0000000e+00 5.8205873e-03 
0.0000000e+00 0.0000000e+00 0.0000000e+00 
-2.0202179e-03 0.0000000e+00 7.7970693e-03 
0.0000000e+00 0.0000000e+00 0.0000000e+00 
0.0000000e+00 0.0000000e+00 0.0000000e+00 
-2.0202179e-03 0.0000000e+00 7.7970693e-03 
0.0000000e+00 0.0000000e+00 0.0000000e+00 
0.0000000e+00 0.0000000e+00 0.0000000e+00 
-2.5185792e-03 0.0000000e+00 9.8610587e-03 
0.0000000e+00 0.0000000e+00 0.0000000e+00 
-2.5185792e-03 0.0000000e+00 9.8610587e-03 
0.0000000e+00 0.0000000e+00 0.0000000e+00 
-2.9942029e-03 0.0000000e+00 1.1895234e-02 
0.0000000e+00 0.0000000e+00 0.0000000e+00 
-2.9942029e-03 0.0000000e+00 1.1895234e-02 
0.0000000e+00 0.0000000e+00 0.0000000e+00 
0.0000000e+00 0.0000000e+00 0.0000000e+00 
-3.4473330e-03 0.0000000e+00 1.3899390e-02 
0.0000000e+00 0.0000000e+00 0.0000000e+00 
-3.4473330e-03 0.0000000e+00 1.3899390e-02 
0.0000000e+00 0.0000000e+00 0.0000000e+00 
-3.8783201e-03 0.0000000e+00 1.5873451e-02 
0.0000000e+00 0.0000000e+00 0.0000000e+00 
-3.8783201e-03 0.0000000e+00 1.5873451e-02 
0.0000000e+00 0.0000000e+00 0.0000000e+00 
-4.2877203e-03 0.0000000e+00 1.7817618e-02 
0.0000000e+00 0.0000000e+00 0.0000000e+00 
-4.2877203e-03 0.0000000e+00 1.7817618e-02 
0.0000000e+00 0.0000000e+00 0.0000000e+00 
-4.6764712e-03 0.0000000e+00 1.9732640e-02 
0.0000000e+00 0.0000000e+00 0.0000000e+00 
-4.6764712e-03 0.0000000e+00 1.9732640e-02 
0.0000000e+00 0.0000000e+00 0.0000000e+00 
0.0000000e+00 0.0000000e+00 0.0000000e+00 
-5.0457948e-03 0.0000000e+00 2.1619708e-02 
0.0000000e+00 0.0000000e+00 0.0000000e+00 
-5.0457948e-03 0.0000000e+00 2.1619708e-02 
0.0000000e+00 0.0000000e+00 0.0000000e+00 
-5.3964506e-03 0.0000000e+00 2.3479418e-02 
0.0000000e+00 0.0000000e+00 0.0000000e+00 
-5.3964506e-03 0.0000000e+00 2.3479418e-02 
0.0000000e+00 0.0000000e+00 0.0000000e+00 
-5.7285485e-03 0.0000000e+00 2.5311453e-02 
0.0000000e+00 0.0000000e+00 0.0000000e+00 
-5.7285485e-03 0.0000000e+00 2.5311453e-02 
0.0000000e+00 0.0000000e+00 0.0000000e+00 
0.0000000e+00 0.0000000e+00 0.0000000e+00 
-6.0427898e-03 0.0000000e+00 2.7116359e-02 
-6.0427898e-03 0.0000000e+00 2.7116359e-02 
0.0000000e+00 0.0000000e+00 0.0000000e+00 
0.0000000e+00 0.0000000e+00 0.0000000e+00 
-6.3406683e-03 0.0000000e+00 2.8895921e-02 
-6.3406683e-03 0.0000000e+00 2.8895921e-02 
0.0000000e+00 0.0000000e+00 0.0000000e+00 
0.0000000e+00 0.0000000e+00 0.0000000e+00 
-6.6231283e-03 0.0000000e+00 3.0651171e-02 
-6.6231283e-03 0.0000000e+00 3.0651171e-02 
0.0000000e+00 0.0000000e+00 0.0000000e+00 
0.0000000e+00 0.0000000e+00 0.0000000e+00 
-6.8902943e-03 0.0000000e+00 3.2381910e-02 
-6.8902943e-03 0.0000000e+00 3.2381910e-02 
0.0000000e+00 0.0000000e+00 0.0000000e+00 
0.0000000e+00 0.0000000e+00 0.0000000e+00 
-7.1424649e-03 0.0000000e+00 3.4088211e-02 
0.0000000e+00 0.0000000e+00 0.0000000e+00 
-7.1424649e-03 0.0000000e+00 3.4088211e-02 
0.0000000e+00 0.0000000e+00 0.0000000e+00 
-7.3806009e-03 0.0000000e+00 3.5771223e-02 
0.0000000e+00 0.0000000e+00 0.0000000e+00 
-7.3806009e-03 0.0000000e+00 3.5771223e-02 
0.0000000e+00 0.0000000e+00 0.0000000e+00 
-7.6054215e-03 0.0000000e+00 3.7431762e-02 
0.0000000e+00 0.0000000e+00 0.0000000e+00 
-7.6054215e-03 0.0000000e+00 3.7431762e-02 
0.0000000e+00 0.0000000e+00 0.0000000e+00 
0.0000000e+00 0.0000000e+00 0.0000000e+00 
-7.8170589e-03 0.0000000e+00 3.9069700e-02 
0.0000000e+00 0.0000000e+00 0.0000000e+00 
-7.8170589e-03 0.0000000e+00 3.9069700e-02 
0.0000000e+00 0.0000000e+00 0.0000000e+00 
-8.0158226e-03 0.0000000e+00 4.0685205e-02 
0.0000000e+00 0.0000000e+00 0.0000000e+00 
-8.0158226e-03 0.0000000e+00 4.0685205e-02 
0.0000000e+00 0.0000000e+00 0.0000000e+00 
0.0000000e+00 0.0000000e+00 0.0000000e+00 
-8.2023164e-03 0.0000000e+00 4.2278968e-02 
-8.2023164e-03 0.0000000e+00 4.2278968e-02 
0.0000000e+00 0.0000000e+00 0.0000000e+00 
0.0000000e+00 0.0000000e+00 0.0000000e+00 
-8.3769615e-03 0.0000000e+00 4.3851392e-02 
-8.3769615e-03 0.0000000e+00 4.3851392e-02 
0.0000000e+00 0.0000000e+00 0.0000000e+00 
0.0000000e+00 0.0000000e+00 0.0000000e+00 
-8.5398361e-03 0.0000000e+00 4.5402291e-02 
-8.5398361e-03 0.0000000e+00 4.5402291e-02 
0.0000000e+00 0.0000000e+00 0.0000000e+00 
0.0000000e+00 0.0000000e+00 0.0000000e+00 
-8.6911306e-03 0.0000000e+00 4.6931669e-02 
-8.6911306e-03 0.0000000e+00 4.6931669e-02 
0.0000000e+00 0.0000000e+00 0.0000000e+00 
0.0000000e+00 0.0000000e+00 0.0000000e+00 
-8.8311477e-03 0.0000000e+00 4.8439753e-02 
-8.8311477e-03 0.0000000e+00 4.8439753e-02 
0.0000000e+00 0.0000000e+00 0.0000000e+00 
0.0000000e+00 0.0000000e+00 0.0000000e+00 
-8.9599599e-03 0.0000000e+00 4.9926338e-02 
0.0000000e+00 0.0000000e+00 0.0000000e+00 
-8.9599599e-03 0.0000000e+00 4.9926338e-02 
0.0000000e+00 0.0000000e+00 0.0000000e+00 
-1.2757521e-04 0.0000000e+00 2.0076728e-03 
-9.0776190e-03 0.0000000e+00 5.1391172e-02 
-1.2757521e-04 0.0000000e+00 2.0076728e-03 
-9.0776190e-03 0.0000000e+00 5.1391172e-02 
-2.5412841e-04 0.0000000e+00 4.0612601e-03 
-9.1843439e-03 0.0000000e+00 5.2834332e-02 
-2.5412841e-04 0.0000000e+00 4.0612601e-03 
-9.1843439e-03 0.0000000e+00 5.2834332e-02 
-3.8123043e-04 0.0000000e+00 6.1289236e-03 
-3.8123043e-04 0.0000000e+00 6.1289236e-03 
-9.2803310e-03 0.0000000e+00 5.4255839e-02 
-9.2803310e-03 0.0000000e+00 5.4255839e-02 
-5.0961844e-04 0.0000000e+00 8.1979878e-03 
-5.0961844e-04 0.0000000e+00 8.1979878e-03 
-9.3656025e-03 0.0000000e+00 5.5655369e-02 
-9.3656025e-03 0.0000000e+00 5.5655369e-02 
-6.3927776e-04 0.0000000e+00 1.0268410e-02 
-6.3927776e-04 0.0000000e+00 1.0268410e-02 
-9.4401434e-03 0.0000000e+00 5.7032523e-02 
-9.4401434e-03 0.0000000e+00 5.7032523e-02 
-7.7020477e-04 0.0000000e+00 1.2340195e-02 
-7.7020477e-04 0.0000000e+00 1.2340195e-02 
-9.5039876e-03 0.0000000e+00 5.8386969e-02 
-9.5039876e-03 0.0000000e+00 5.8386969e-02 
-9.0203982e-04 0.0000000e+00 1.4412715e-02 
-9.0203982e-04 0.0000000e+00 1.4412715e-02 
-9.5572897e-03 0.0000000e+00 5.9718612e-02 
-9.5572897e-03 0.0000000e+00 5.9718612e-02 
-1.0340960e-03 0.0000000e+00 1.6484815e-02 
-1.0340960e-03 0.0000000e+00 1.6484815e-02 
-9.6003666e-03 0.0000000e+00 6.1027725e-02 
-1.1660508e-03 0.0000000e+00 1.8555931e-02 
-9.6003666e-03 0.0000000e+00 6.1027725e-02 
-1.1660508e-03 0.0000000e+00 1.8555931e-02 
-1.2979071e-03 0.0000000e+00 2.0626075e-02 
-9.6333494e-03 0.0000000e+00 6.2314170e-02 
-1.2979071e-03 0.0000000e+00 2.0626075e-02 
-9.6333494e-03 0.0000000e+00 6.2314170e-02 
-1.4292252e-03 0.0000000e+00 2.2694505e-02 
-9.6562162e-03 0.0000000e+00 6.3577462e-02 
-1.4292252e-03 0.0000000e+00 2.2694505e-02 
-9.6562162e-03 0.0000000e+00 6.3577462e-02 
-1.5591825e-03 0.0000000e+00 2.4759804e-02 
-1.5591825e-03 0.0000000e+00 2.4759804e-02 
-9.6691032e-03 0.0000000e+00 6.4817466e-02 
-9.6691032e-03 0.0000000e+00 6.4817466e-02 
-1.6871558e-03 0.0000000e+00 2.6820918e-02 
-1.6871558e-03 0.0000000e+00 2.6820918e-02 
-9.6721223e-03 0.0000000e+00 6.6033972e-02 
-9.6721223e-03 0.0000000e+00 6.6033972e-02 
-1.8126872e-03 0.0000000e+00 2.8877040e-02 
-1.8126872e-03 0.0000000e+00 2.8877040e-02 
-9.6651649e-03 0.0000000e+00 6.7226229e-02 
-9.6651649e-03 0.0000000e+00 6.7226229e-02 
-1.9351933e-03 0.0000000e+00 3.0927172e-02 
-1.9351933e-03 0.0000000e+00 3.0927172e-02 
-9.6481824e-03 0.0000000e+00 6.8393602e-02 
-9.6481824e-03 0.0000000e+00 6.8393602e-02 
-2.0539761e-03 0.0000000e+00 3.2970078e-02 
-2.0539761e-03 0.0000000e+00 3.2970078e-02 
-9.6213475e-03 0.0000000e+00 6.9535957e-02 
-9.6213475e-03 0.0000000e+00 6.9535957e-02 
-2.1684696e-03 0.0000000e+00 3.5004760e-02 
-2.1684696e-03 0.0000000e+00 3.5004760e-02 
-9.5848457e-03 0.0000000e+00 7.0653184e-02 
-9.5848457e-03 0.0000000e+00 7.0653184e-02 
-2.2781497e-03 0.0000000e+00 3.7030274e-02 
-2.2781497e-03 0.0000000e+00 3.7030274e-02 
-9.5388075e-03 0.0000000e+00 7.1745038e-02 
-9.5388075e-03 0.0000000e+00 7.1745038e-02 
-2.3824244e-03 0.0000000e+00 3.9045528e-02 
-2.3824244e-03 0.0000000e+00 3.9045528e-02 
-9.4833469e-03 0.0000000e+00 7.2811204e-02 
-2.4807559e-03 0.0000000e+00 4.1049533e-02 
-9.4833469e-03 0.0000000e+00 7.2811204e-02 
-2.4807559e-03 0.0000000e+00 4.1049533e-02 
-9.4186392e-03 0.0000000e+00 7.3851514e-02 
-2.5725836e-03 0.0000000e+00 4.3041206e-02 
-9.4186392e-03 0.0000000e+00 7.3851514e-02 
-2.5725836e-03 0.0000000e+00 4.3041206e-02 
-2.6572788e-03 0.0000000e+00 4.5019355e-02 
-9.3448592e-03 0.0000000e+00 7.4865803e-02 
-2.6572788e-03 0.0000000e+00 4.5019355e-02 
-9.3448592e-03 0.0000000e+00 7.4865803e-02 
-2.7343519e-03 0.0000000e+00 4.6982976e-02 
-2.7343519e-03 0.0000000e+00 4.6982976e-02 
-9.2621697e-03 0.0000000e+00 7.5853847e-02 
-9.2621697e-03 0.0000000e+00 7.5853847e-02 
-2.8033853e-03 0.0000000e+00 4.8931194e-02 
-2.8033853e-03 0.0000000e+00 4.8931194e-02 
-9.1707207e-03 0.0000000e+00 7.6815373e-02 
-9.1707207e-03 0.0000000e+00 7.6815373e-02 
-2.8638328e-03 0.0000000e+00 5.0862868e-02 
-2.8638328e-03 0.0000000e+00 5.0862868e-02 
-9.0705650e-03 0.0000000e+00 7.7749798e-02 
-9.0705650e-03 0.0000000e+00 7.7749798e-02 
-2.9151545e-03 0.0000000e+00 5.2776818e-02 
-2.9151545e-03 0.0000000e+00 5.2776818e-02 
-8.9619194e-03 0.0000000e+00 7.8656999e-02 
-8.9619194e-03 0.0000000e+00 7.8656999e-02 
-2.9568386e-03 0.0000000e+00 5.4671900e-02 
-2.9568386e-03 0.0000000e+00 5.4671900e-02 
-8.8450591e-03 0.0000000e+00 7.9537041e-02 
-8.8450591e-03 0.0000000e+00 7.9537041e-02 
-2.9883967e-03 0.0000000e+00 5.6546949e-02 
-2.9883967e-03 0.0000000e+00 5.6546949e-02 
-8.7200822e-03 0.0000000e+00 8.0389413e-02 
-8.7200822e-03 0.0000000e+00 8.0389413e-02 
-3.0095320e-03 0.0000000e+00 5.8401152e-02 
-3.0095320e-03 0.0000000e+00 5.8401152e-02 
-8.5870752e-03 0.0000000e+00 8.1213498e-02 
-8.5870752e-03 0.0000000e+00 8.1213498e-02 
-3.0199866e-03 0.0000000e+00 6.0233708e-02 
-3.0199866e-03 0.0000000e+00 6.0233708e-02 
-8.4461791e-03 0.0000000e+00 8.2008824e-02 
-8.4461791e-03 0.0000000e+00 8.2008824e-02 
-3.0195099e-03 0.0000000e+00 6.2043822e-02 
-3.0195099e-03 0.0000000e+00 6.2043822e-02 
-8.2975729e-03 0.0000000e+00 8.2775026e-02 
-8.2975729e-03 0.0000000e+00 8.2775026e-02 
-3.0079503e-03 0.0000000e+00 6.3830857e-02 
-3.0079503e-03 0.0000000e+00 6.3830857e-02 
-8.1414353e-03 0.0000000e+00 8.3511684e-02 
-8.1414353e-03 0.0000000e+00 8.3511684e-02 
-2.9850321e-03 0.0000000e+00 6.5593877e-02 
-2.9850321e-03 0.0000000e+00 6.5593877e-02 
-7.9780109e-03 0.0000000e+00 8.4218607e-02 
-7.9780109e-03 0.0000000e+00 8.4218607e-02 
-2.9503599e-03 0.0000000e+00 6.7331664e-02 
-2.9503599e-03 0.0000000e+00 6.7331664e-02 
-7.8075899e-03 0.0000000e+00 8.4895794e-02 
-2.9038375e-03 0.0000000e+00 6.9043558e-02 
-7.8075899e-03 0.0000000e+00 8.4895794e-02 
-2.9038375e-03 0.0000000e+00 6.9043558e-02 
-2.8455701e-03 0.0000000e+00 7.0729319e-02 
-7.6303882e-03 0.0000000e+00 8.5542900e-02 
-2.8455701e-03 0.0000000e+00 7.0729319e-02 
-7.6303882e-03 0.0000000e+00 8.5542900e-02 
-2.7753952e-03 0.0000000e+00 7.2388079e-02 
-7.4466350e-03 0.0000000e+00 8.6159602e-02 
-2.7753952e-03 0.0000000e+00 7.2388079e-02 
-7.4466350e-03 0.0000000e+00 8.6159602e-02 
-2.6930501e-03 0.0000000e+00 7.4018706e-02 
-2.6930501e-03 0.0000000e+00 7.4018706e-02 
-7.2565692e-03 0.0000000e+00 8.6745605e-02 
-7.2565692e-03 0.0000000e+00 8.6745605e-02 
-2.5984726e-03 0.0000000e+00 7.5620459e-02 
-2.5984726e-03 0.0000000e+00 7.5620459e-02 
-7.0604296e-03 0.0000000e+00 8.7300545e-02 
-7.0604296e-03 0.0000000e+00 8.7300545e-02 
-2.4917661e-03 0.0000000e+00 7.7192928e-02 
-2.4917661e-03 0.0000000e+00 7.7192928e-02 
-6.8585108e-03 0.0000000e+00 8.7824336e-02 
-6.8585108e-03 0.0000000e+00 8.7824336e-02 
-2.3729826e-03 0.0000000e+00 7.8735569e-02 
-2.3729826e-03 0.0000000e+00 7.8735569e-02 
-6.6511880e-03 0.0000000e+00 8.8317327e-02 
-6.6511880e-03 0.0000000e+00 8.8317327e-02 
-2.2420225e-03 0.0000000e+00 8.0247402e-02 
-2.2420225e-03 0.0000000e+00 8.0247402e-02 
-6.4388406e-03 0.0000000e+00 8.8779964e-02 
-6.4388406e-03 0.0000000e+00 8.8779964e-02 
-2.0989272e-03 0.0000000e+00 8.1727753e-02 
-2.0989272e-03 0.0000000e+00 8.1727753e-02 
-6.2216900e-03 0.0000000e+00 8.9211783e-02 
-6.2216900e-03 0.0000000e+00 8.9211783e-02 
-1.9439008e-03 0.0000000e+00 8.3176305e-02 
-1.9439008e-03 0.0000000e+00 8.3176305e-02 
-5.9999261e-03 0.0000000e+00 8.9611987e-02 
-5.9999261e-03 0.0000000e+00 8.9611987e-02 
-1.7769467e-03 0.0000000e+00 8.4592198e-02 
-1.7769467e-03 0.0000000e+00 8.4592198e-02 
-5.7738718e-03 0.0000000e+00 8.9980601e-02 
-5.7738718e-03 0.0000000e+00 8.9980601e-02 
-1.5979775e-03 0.0000000e+00 8.5974212e-02 
-1.5979775e-03 0.0000000e+00 8.5974212e-02 
-5.5439228e-03 0.0000000e+00 9.0318285e-02 
-5.5439228e-03 0.0000000e+00 9.0318285e-02 
-1.4071981e-03 0.0000000e+00 8.7321885e-02 
-1.4071981e-03 0.0000000e+00 8.7321885e-02 
-5.3104394e-03 0.0000000e+00 9.0625537e-02 
-5.3104394e-03 0.0000000e+00 9.0625537e-02 
-1.2049992e-03 0.0000000e+00 8.8635264e-02 
-1.2049992e-03 0.0000000e+00 8.8635264e-02 
-5.0737068e-03 0.0000000e+00 9.0902280e-02 
-5.0737068e-03 0.0000000e+00 9.0902280e-02 
-9.9158517e-04 0.0000000e+00 8.9913814e-02 
-9.9158517e-04 0.0000000e+00 8.9913814e-02 
-4.8340015e-03 0.0000000e+00 9.1148362e-02 
-4.8340015e-03 0.0000000e+00 9.1148362e-02 
-7.6701029e-04 0.0000000e+00 9.1156488e-02 
-7.6701029e-04 0.0000000e+00 9.1156488e-02 
-4.5916124e-03 0.0000000e+00 9.1363693e-02 
-4.5916124e-03 0.0000000e+00 9.1363693e-02 
-5.3259994e-04 0.0000000e+00 9.2356661e-02 
-5.3259994e-04 0.0000000e+00 9.2356661e-02 
-4.3460873e-03 0.0000000e+00 9.1548559e-02 
-4.3460873e-03 0.0000000e+00 9.1548559e-02 
-2.3727001e-04 0.0000000e+00 9.3748071e-02 
-2.3727001e-04 0.0000000e+00 9.3748071e-02 
-4.0486710e-03 0.0000000e+00 9.1729059e-02 
-4.0486710e-03 0.0000000e+00 9.1729059e-02 
1.3680734e-04 0.0000000e+00 9.5345799e-02 
1.3680734e-04 0.0000000e+00 9.5345799e-02 
-3.6884492e-03 0.0000000e+00 9.1885885e-02 
-3.6884492e-03 0.0000000e+00 9.1885885e-02 
6.1314528e-04 0.0000000e+00 9.7155933e-02 
6.1314528e-04 0.0000000e+00 9.7155933e-02 
-3.2570454e-03 0.0000000e+00 9.1986793e-02 
-3.2570454e-03 0.0000000e+00 9.1986793e-02 
1.1456514e-03 0.0000000e+00 9.8933500e-02 
1.1456514e-03 0.0000000e+00 9.8933500e-02 
-2.8232966e-03 0.0000000e+00 9.1994395e-02 
-2.8232966e-03 0.0000000e+00 9.1994395e-02 
1.7070442e-03 0.0000000e+00 1.0057543e-01 
1.7070442e-03 0.0000000e+00 1.0057543e-01 
-2.3887815e-03 0.0000000e+00 9.1908569e-02 
-2.3887815e-03 0.0000000e+00 9.1908569e-02 
2.2943957e-03 0.0000000e+00 1.0208074e-01 
2.2943957e-03 0.0000000e+00 1.0208074e-01 
-1.9550625e-03 0.0000000e+00 9.1730448e-02 
-1.9550625e-03 0.0000000e+00 9.1730448e-02 
2.9044034e-03 0.0000000e+00 1.0345045e-01 
2.9044034e-03 0.0000000e+00 1.0345045e-01 
-1.5236400e-03 0.0000000e+00 9.1461259e-02 
-1.5236400e-03 0.0000000e+00 9.1461259e-02 
3.5339859e-03 0.0000000e+00 1.0468465e-01 
3.5339859e-03 0.0000000e+00 1.0468465e-01 
-1.0960307e-03 0.0000000e+00 9.1100786e-02 
-1.0960307e-03 0.0000000e+00 9.1100786e-02 
4.1801851e-03 0.0000000e+00 1.0578246e-01 
4.1801851e-03 0.0000000e+00 1.0578246e-01 
-6.7371250e-04 0.0000000e+00 9.0649530e-02 
-6.7371250e-04 0.0000000e+00 9.0649530e-02 
4.8398709e-03 0.0000000e+00 1.0674440e-01 
4.8398709e-03 0.0000000e+00 1.0674440e-01 
-2.5798376e-04 0.0000000e+00 9.0109861e-02 