# vtk DataFile Version 4.0
vtk output
ASCII
DATASET UNSTRUCTURED_GRID
POINTS 824 float
-6.4148600e-05 1.0000000e-02 -4.4525366e-03 
-1.0680180e-04 1.0000000e-02 -2.8088474e-03 
3.4513260e-04 1.0000000e-02 -6.0450544e-03 
1.3803532e-03 1.0000000e-02 -7.3230534e-03 
6.5829700e-05 1.0000000e-02 -1.1736922e-03 
2.7142144e-03 1.0000000e-02 -8.2851896e-03 
5.0392030e-04 1.0000000e-02 6.5784910e-04 
4.1780764e-03 1.0000000e-02 -9.0342357e-03 
1.1628646e-03 1.0000000e-02 2.4220088e-03 
5.7070961e-03 1.0000000e-02 -9.6390187e-03 
2.0046218e-03 1.0000000e-02 4.1066196e-03 
7.2731595e-03 1.0000000e-02 -1.0140047e-02 
-6.4148600e-05 0.0000000e+00 -4.4525366e-03 
-1.0680180e-04 0.0000000e+00 -2.8088474e-03 
3.4513260e-04 0.0000000e+00 -6.0450544e-03 
1.3803532e-03 0.0000000e+00 -7.3230534e-03 
6.5829700e-05 0.0000000e+00 -1.1736922e-03 
2.9952540e-03 1.0000000e-02 5.7082181e-03 
8.8622628e-03 1.0000000e-02 -1.0562311e-02 
2.7142144e-03 0.0000000e+00 -8.2851896e-03 
5.0392030e-04 0.0000000e+00 6.5784910e-04 
4.1780764e-03 0.0000000e+00 -9.0342357e-03 
1.1628646e-03 0.0000000e+00 2.4220088e-03 
1.0466628e-02 1.0000000e-02 -1.0922252e-02 
4.1067238e-03 1.0000000e-02 7.2284501e-03 
5.7070961e-03 0.0000000e+00 -9.6390187e-03 
2.0046218e-03 0.0000000e+00 4.1066196e-03 
7.2731595e-03 0.0000000e+00 -1.0140047e-02 
1.2081579e-02 1.0000000e-02 -1.1231240e-02 
5.3166988e-03 1.0000000e-02 8.6715129e-03 
2.9952540e-03 0.0000000e+00 5.7082181e-03 
8.8622628e-03 0.0000000e+00 -1.0562311e-02 
1.3704120e-02 1.0000000e-02 -1.1497501e-02 
1.0466628e-02 0.0000000e+00 -1.0922252e-02 
4.1067238e-03 0.0000000e+00 7.2284501e-03 
6.6076374e-03 1.0000000e-02 1.0042624e-02 
1.5332244e-02 1.0000000e-02 -1.1727173e-02 
1.2081579e-02 0.0000000e+00 -1.1231240e-02 
5.3166988e-03 0.0000000e+00 8.6715129e-03 
7.9658343e-03 1.0000000e-02 1.1347144e-02 
1.3704120e-02 0.0000000e+00 -1.1497501e-02 
1.6964543e-02 1.0000000e-02 -1.1925002e-02 
6.6076374e-03 0.0000000e+00 1.0042624e-02 
9.3804686e-03 1.0000000e-02 1.2590236e-02 
1.5332244e-02 0.0000000e+00 -1.1727173e-02 
1.8600004e-02 1.0000000e-02 -1.2094716e-02 
7.9658343e-03 0.0000000e+00 1.1347144e-02 
1.6964543e-02 0.0000000e+00 -1.1925002e-02 
1.0843002e-02 1.0000000e-02 1.3776601e-02 
2.0237876e-02 1.0000000e-02 -1.2239318e-02 
9.3804686e-03 0.0000000e+00 1.2590236e-02 
1.8600004e-02 0.0000000e+00 -1.2094716e-02 
1.2346566e-02 1.0000000e-02 1.4910517e-02 
2.1877591e-02 1.0000000e-02 -1.2361246e-02 
1.0843002e-02 0.0000000e+00 1.3776601e-02 
2.0237876e-02 0.0000000e+00 -1.2239318e-02 
1.3885623e-02 1.0000000e-02 1.5995768e-02 
2.3518711e-02 1.0000000e-02 -1.2462540e-02 
1.2346566e-02 0.0000000e+00 1.4910517e-02 
2.1877591e-02 0.0000000e+00 -1.2361246e-02 
2.5160890e-02 1.0000000e-02 -1.2544903e-02 
1.5455654e-02 1.0000000e-02 1.7035707e-02 
1.3885623e-02 0.0000000e+00 1.5995768e-02 
2.3518711e-02 0.0000000e+00 -1.2462540e-02 
2.6803852e-02 1.0000000e-02 -1.2609772e-02 
1.7052912e-02 1.0000000e-02 1.8033321e-02 
2.5160890e-02 0.0000000e+00 -1.2544903e-02 
1.5455654e-02 0.0000000e+00 1.7035707e-02 
2.8447376e-02 1.0000000e-02 -1.2658389e-02 
2.6803852e-02 0.0000000e+00 -1.2609772e-02 
1.7052912e-02 0.0000000e+00 1.8033321e-02 
1.8674284e-02 1.0000000e-02 1.8991246e-02 
3.0091279e-02 1.0000000e-02 -1.2691814e-02 
2.8447376e-02 0.0000000e+00 -1.2658389e-02 
1.8674284e-02 0.0000000e+00 1.8991246e-02 
2.0317149e-02 1.0000000e-02 1.9911822e-02 
3.0091279e-02 0.0000000e+00 -1.2691814e-02 
3.1735410e-02 1.0000000e-02 -1.2710971e-02 
2.0317149e-02 0.0000000e+00 1.9911822e-02 
2.1979295e-02 1.0000000e-02 2.0797113e-02 
3.1735410e-02 0.0000000e+00 -1.2710971e-02 
3.3379643e-02 1.0000000e-02 -1.2716676e-02 
2.1979295e-02 0.0000000e+00 2.0797113e-02 
2.3658832e-02 1.0000000e-02 2.1648949e-02 
3.3379643e-02 0.0000000e+00 -1.2716676e-02 
3.5023871e-02 1.0000000e-02 -1.2709629e-02 
2.3658832e-02 0.0000000e+00 2.1648949e-02 
2.5354100e-02 1.0000000e-02 2.2469029e-02 
3.5023871e-02 0.0000000e+00 -1.2709629e-02 
3.6668001e-02 1.0000000e-02 -1.2690457e-02 
2.5354100e-02 0.0000000e+00 2.2469029e-02 
2.7063712e-02 1.0000000e-02 2.3258772e-02 
3.6668001e-02 0.0000000e+00 -1.2690457e-02 
3.8312016e-02 1.0000000e-02 -1.2663038e-02 
2.7063712e-02 0.0000000e+00 2.3258772e-02 
3.8312016e-02 0.0000000e+00 -1.2663038e-02 
2.8786417e-02 1.0000000e-02 2.4019532e-02 
3.9956032e-02 1.0000000e-02 -1.2635752e-02 
2.8786417e-02 0.0000000e+00 2.4019532e-02 
3.9956032e-02 0.0000000e+00 -1.2635752e-02 
3.0521135e-02 1.0000000e-02 2.4752486e-02 
4.1600048e-02 1.0000000e-02 -1.2608467e-02 
3.0521135e-02 0.0000000e+00 2.4752486e-02 
4.1600048e-02 0.0000000e+00 -1.2608467e-02 
3.2266919e-02 1.0000000e-02 2.5458676e-02 
4.3299814e-02 1.0000000e-02 -1.2580255e-02 
3.2266919e-02 0.0000000e+00 2.5458676e-02 
4.3299814e-02 0.0000000e+00 -1.2580255e-02 
3.4022902e-02 1.0000000e-02 2.6139111e-02 
4.5339533e-02 1.0000000e-02 -1.2546402e-02 
3.4022902e-02 0.0000000e+00 2.6139111e-02 
4.5339533e-02 0.0000000e+00 -1.2546402e-02 
3.5788340e-02 1.0000000e-02 2.6794623e-02 
4.7787196e-02 1.0000000e-02 -1.2505778e-02 
3.5788340e-02 0.0000000e+00 2.6794623e-02 
3.7562554e-02 1.0000000e-02 2.7425996e-02 
4.7787196e-02 0.0000000e+00 -1.2505778e-02 
3.7562554e-02 0.0000000e+00 2.7425996e-02 
3.9344928e-02 1.0000000e-02 2.8033950e-02 
5.0379113e-02 1.0000000e-02 -1.2462760e-02 
3.9344928e-02 0.0000000e+00 2.8033950e-02 
5.0379113e-02 0.0000000e+00 -1.2462760e-02 
4.1134916e-02 1.0000000e-02 2.8619109e-02 
5.2971029e-02 1.0000000e-02 -1.2419741e-02 
4.1134916e-02 0.0000000e+00 2.8619109e-02 
5.2971029e-02 0.0000000e+00 -1.2419741e-02 
4.2932026e-02 1.0000000e-02 2.9182016e-02 
4.2932026e-02 0.0000000e+00 2.9182016e-02 
5.5562946e-02 1.0000000e-02 -1.2376723e-02 
4.5339682e-02 1.0000000e-02 2.9899231e-02 
5.5562946e-02 0.0000000e+00 -1.2376723e-02 
4.5339682e-02 0.0000000e+00 2.9899231e-02 
5.8154863e-02 1.0000000e-02 -1.2333705e-02 
4.7758221e-02 1.0000000e-02 3.0578844e-02 
5.8154863e-02 0.0000000e+00 -1.2333705e-02 
4.7758221e-02 0.0000000e+00 3.0578844e-02 
6.0746779e-02 1.0000000e-02 -1.2290686e-02 
5.0186760e-02 1.0000000e-02 3.1221807e-02 
6.0746779e-02 0.0000000e+00 -1.2290686e-02 
5.0186760e-02 0.0000000e+00 3.1221807e-02 
6.3338696e-02 1.0000000e-02 -1.2247668e-02 
5.2624513e-02 1.0000000e-02 3.1828903e-02 
6.3338696e-02 0.0000000e+00 -1.2247668e-02 
5.2624513e-02 0.0000000e+00 3.1828903e-02 
5.5070762e-02 1.0000000e-02 3.2400804e-02 
6.5930613e-02 1.0000000e-02 -1.2204650e-02 
5.5070762e-02 0.0000000e+00 3.2400804e-02 
6.5930613e-02 0.0000000e+00 -1.2204650e-02 
5.7524847e-02 1.0000000e-02 3.2938082e-02 
6.8522529e-02 1.0000000e-02 -1.2161631e-02 
5.7524847e-02 0.0000000e+00 3.2938082e-02 
6.8522529e-02 0.0000000e+00 -1.2161631e-02 
5.9986169e-02 1.0000000e-02 3.3441170e-02 
7.1114446e-02 1.0000000e-02 -1.2118613e-02 
5.9986169e-02 0.0000000e+00 3.3441170e-02 
7.1114446e-02 0.0000000e+00 -1.2118613e-02 
6.2454163e-02 1.0000000e-02 3.3910436e-02 
6.2454163e-02 0.0000000e+00 3.3910436e-02 
7.3706362e-02 1.0000000e-02 -1.2075595e-02 
7.3706362e-02 0.0000000e+00 -1.2075595e-02 
6.4928303e-02 1.0000000e-02 3.4346139e-02 
6.4928303e-02 0.0000000e+00 3.4346139e-02 
7.6298279e-02 1.0000000e-02 -1.2032577e-02 
7.6298279e-02 0.0000000e+00 -1.2032577e-02 
6.7408092e-02 1.0000000e-02 3.4748446e-02 
6.7408092e-02 0.0000000e+00 3.4748446e-02 
7.8890196e-02 1.0000000e-02 -1.1989558e-02 
7.8890196e-02 0.0000000e+00 -1.1989558e-02 
6.9893057e-02 1.0000000e-02 3.5117436e-02 
6.9893057e-02 0.0000000e+00 3.5117436e-02 
8.1482112e-02 1.0000000e-02 -1.1946540e-02 
8.1482112e-02 0.0000000e+00 -1.1946540e-02 
7.2382742e-02 1.0000000e-02 3.5453098e-02 
7.2382742e-02 0.0000000e+00 3.5453098e-02 
8.4074029e-02 1.0000000e-02 -1.1903522e-02 
7.4876707e-02 1.0000000e-02 3.5755332e-02 
8.4074029e-02 0.0000000e+00 -1.1903522e-02 
7.4876707e-02 0.0000000e+00 3.5755332e-02 
8.6665946e-02 1.0000000e-02 -1.1860503e-02 
7.7374516e-02 1.0000000e-02 3.6023948e-02 
8.6665946e-02 0.0000000e+00 -1.1860503e-02 
7.7374516e-02 0.0000000e+00 3.6023948e-02 
8.9257862e-02 1.0000000e-02 -1.1817485e-02 
7.9875738e-02 1.0000000e-02 3.6258665e-02 
8.9257862e-02 0.0000000e+00 -1.1817485e-02 
7.9875738e-02 0.0000000e+00 3.6258665e-02 
8.2379940e-02 1.0000000e-02 3.6459105e-02 
9.1849779e-02 1.0000000e-02 -1.1774467e-02 
8.2379940e-02 0.0000000e+00 3.6459105e-02 
9.1849779e-02 0.0000000e+00 -1.1774467e-02 
8.4886681e-02 1.0000000e-02 3.6624786e-02 
9.4441696e-02 1.0000000e-02 -1.1731448e-02 
8.4886681e-02 0.0000000e+00 3.6624786e-02 
9.4441696e-02 0.0000000e+00 -1.1731448e-02 
8.7395510e-02 1.0000000e-02 3.6755108e-02 
8.7395510e-02 0.0000000e+00 3.6755108e-02 
9.7033612e-02 1.0000000e-02 -1.1688430e-02 
9.7033612e-02 0.0000000e+00 -1.1688430e-02 
8.9905951e-02 1.0000000e-02 3.6849401e-02 
8.9905951e-02 0.0000000e+00 3.6849401e-02 
9.9625529e-02 1.0000000e-02 -1.1645412e-02 
9.9625529e-02 0.0000000e+00 -1.1645412e-02 
9.2417505e-02 1.0000000e-02 3.6906832e-02 
9.2417505e-02 0.0000000e+00 3.6906832e-02 
1.0221745e-01 1.0000000e-02 -1.1602393e-02 
1.0221745e-01 0.0000000e+00 -1.1602393e-02 
9.4929640e-02 1.0000000e-02 3.6926425e-02 
9.4929640e-02 0.0000000e+00 3.6926425e-02 
1.0480936e-01 1.0000000e-02 -1.1559375e-02 
1.0480936e-01 0.0000000e+00 -1.1559375e-02 
9.7441776e-02 1.0000000e-02 3.6907077e-02 
9.7441776e-02 0.0000000e+00 3.6907077e-02 
1.0740128e-01 1.0000000e-02 -1.1516357e-02 
1.0740128e-01 0.0000000e+00 -1.1516357e-02 
9.9953281e-02 1.0000000e-02 3.6847529e-02 
9.9953281e-02 0.0000000e+00 3.6847529e-02 
1.0999320e-01 1.0000000e-02 -1.1473339e-02 
1.0246345e-01 1.0000000e-02 3.6746314e-02 
1.0999320e-01 0.0000000e+00 -1.1473339e-02 
1.0246345e-01 0.0000000e+00 3.6746314e-02 
1.0497150e-01 1.0000000e-02 3.6601738e-02 
1.1258511e-01 1.0000000e-02 -1.1430320e-02 
1.0497150e-01 0.0000000e+00 3.6601738e-02 
1.1258511e-01 0.0000000e+00 -1.1430320e-02 
1.0747666e-01 1.0000000e-02 3.6413638e-02 
1.1517703e-01 1.0000000e-02 -1.1387302e-02 
1.0747666e-01 0.0000000e+00 3.6413638e-02 
[...]
POINT_DATA 824
FIELD FieldData 2
DISPLACEMENT 3 824  float
0.0000000e+00 0.0000000e+00 0.0000000e+00 
0.0000000e+00 0.0000000e+00 0.0000000e+00 
0.0000000e+00 0.0000000e+00 0.0000000e+00 
0.0000000e+00 0.0000000e+00 0.0000000e+00 
0.0000000e+00 0.0000000e+00 0.0000000e+00 
0.0000000e+00 0.0000000e+00 0.0000000e+00 
0.0000000e+00 0.0000000e+00 0.0000000e+00 
0.0000000e+00 0.0000000e+00 0.0000000e+00 
0.0000000e+00 0.0000000e+00 0.0000000e+00 
0.0000000e+00 0.0000000e+00 0.0000000e+00 
0.0000000e+00 0.0000000e+00 0.0000000e+00 
0.0000000e+00 0.0000000e+00 0.0000000e+00 
0.0000000e+00 0.0000000e+00 0.0000000e+00 
0.0000000e+00 0.0000000e+00 0.0000000e+00 
0.0000000e+00 0.0000000e+00 0.0000000e+00 
0.0000000e+00 0.0000000e+00 0.0000000e+00 
0.0000000e+00 0.0000000e+00 0.0000000e+00 
0.0000000e+00 0.0000000e+00 0.0000000e+00 
0.0000000e+00 0.0000000e+00 0.0000000e+00 
0.0000000e+00 0.0000000e+00 0.0000000e+00 
0.0000000e+00 0.0000000e+00 0.0000000e+00 
0.0000000e+00 0.0000000e+00 0.0000000e+00 
0.0000000e+00 0.0000000e+00 0.0000000e+00 
0.0000000e+00 0.0000000e+00 0.0000000e+00 
0.0000000e+00 0.0000000e+00 0.0000000e+00 
0.0000000e+00 0.0000000e+00 0.0000000e+00 
0.0000000e+00 0.0000000e+00 0.0000000e+00 
0.0000000e+00 0.0000000e+00 0.0000000e+00 
0.0000000e+00 0.0000000e+00 0.0000000e+00 
0.0000000e+00 0.0000000e+00 0.0000000e+00 
0.0000000e+00 0.0000000e+00 0.0000000e+00 
0.0000000e+00 0.0000000e+00 0.0000000e+00 
0.0000000e+00 0.0000000e+00 0.0000000e+00 
0.0000000e+00 0.0000000e+00 0.0000000e+00 
0.0000000e+00 0.0000000e+00 0.0000000e+00 
0.0000000e+00 0.0000000e+00 0.0000000e+00 
0.0000000e+00 0.0000000e+00 0.0000000e+00 
0.0000000e+00 0.0000000e+00 0.0000000e+00 
0.0000000e+00 0.0000000e+00 0.0000000e+00 
0.0000000e+00 0.0000000e+00 0.0000000e+00 
0.0000000e+00 0.0000000e+00 0.0000000e+00 
0.0000000e+00 0.0000000e+00 0.0000000e+00 
0.0000000e+00 0.0000000e+00 0.0000000e+00 
0.0000000e+00 0.0000000e+00 0.0000000e+00 
0.0000000e+00 0.0000000e+00 0.0000000e+00 
0.0000000e+00 0.0000000e+00 0.0000000e+00 
0.0000000e+00 0.0000000e+00 0.0000000e+00 
0.0000000e+00 0.0000000e+00 0.0000000e+00 
0.0000000e+00 0.0000000e+00 0.0000000e+00 
0.0000000e+00 0.0000000e+00 0.0000000e+00 
0.0000000e+00 0.0000000e+00 0.0000000e+00 
0.0000000e+00 0.0000000e+00 0.0000000e+00 
0.0000000e+00 0.0000000e+00 0.0000000e+00 
0.0000000e+00 0.0000000e+00 0.0000000e+00 
0.0000000e+00 0.0000000e+00 0.0000000e+00 
0.0000000e+00 0.0000000e+00 0.0000000e+00 
0.0000000e+00 0.0000000e+00 0.0000000e+00 
0.0000000e+00 0.0000000e+00 0.0000000e+00 
0.0000000e+00 0.0000000e+00 0.0000000e+00 
0.0000000e+00 0.0000000e+00 0.0000000e+00 
0.0000000e+00 0.0000000e+00 0.0000000e+00 
0.0000000e+00 0.0000000e+00 0.0000000e+00 
0.0000000e+00 0.0000000e+00 0.0000000e+00 
0.0000000e+00 0.0000000e+00 0.0000000e+00 
0.0000000e+00 0.0000000e+00 0.0000000e+00 
0.0000000e+00 0.0000000e+00 0.0000000e+00 
0.0000000e+00 0.0000000e+00 0.0000000e+00 
0.0000000e+00 0.0000000e+00 0.0000000e+00 
0.0000000e+00 0.0000000e+00 0.0000000e+00 
0.0000000e+00 0.0000000e+00 0.0000000e+00 
0.0000000e+00 0.0000000e+00 0.0000000e+00 
0.0000000e+00 0.0000000e+00 0.0000000e+00 
0.0000000e+00 0.0000000e+00 0.0000000e+00 
0.0000000e+00 0.0000000e+00 0.0000000e+00 
0.0000000e+00 0.0000000e+00 0.0000000e+00 
0.0000000e+00 0.0000000e+00 0.0000000e+00 
0.0000000e+00 0.0000000e+00 0.0000000e+00 
0.0000000e+00 0.0000000e+00 0.0000000e+00 
0.0000000e+00 0.0000000e+00 0.0000000e+00 
0.0000000e+00 0.0000000e+00 0.0000000e+00 
0.0000000e+00 0.0000000e+00 0.0000000e+00 
0.0000000e+00 0.0000000e+00 0.0000000e+00 
0.0000000e+00 0.0000000e+00 0.0000000e+00 
0.0000000e+00 0.0000000e+00 0.0000000e+00 
0.0000000e+00 0.0000000e+00 0.0000000e+00 
0.0000000e+00 0.0000000e+00 0.0000000e+00 
0.0000000e+00 0.0000000e+00 0.0000000e+00 
0.0000000e+00 0.0000000e+00 0.0000000e+00 
0.0000000e+00 0.0000000e+00 0.0000000e+00 
0.0000000e+00 0.0000000e+00 0.0000000e+00 
0.0000000e+00 0.0000000e+00 0.0000000e+00 
0.0000000e+00 0.0000000e+00 0.0000000e+00 
0.0000000e+00 0.0000000e+00 0.0000000e+00 
0.0000000e+00 0.0000000e+00 0.0000000e+00 
0.0000000e+00 0.0000000e+00 0.0000000e+00 
0.0000000e+00 0.0000000e+00 0.0000000e+00 
0.0000000e+00 0.0000000e+00 0.0000000e+00 
-1.9846965e-05 0.0000000e+00 2.6094272e-04 
0.0000000e+00 0.0000000e+00 0.0000000e+00 
-1.9846965e-05 0.0000000e+00 2.6094272e-04 
0.0000000e+00 0.0000000e+00 0.0000000e+00 
-3.9182183e-05 0.0000000e+00 5.1887151e-04 
0.0000000e+00 0.0000000e+00 0.0000000e+00 
-3.9182183e-05 0.0000000e+00 5.1887151e-04 
0.0000000e+00 0.0000000e+00 0.0000000e+00 
-5.8642700e-05 0.0000000e+00 7.8238660e-04 
0.0000000e+00 0.0000000e+00 0.0000000e+00 
-5.8642700e-05 0.0000000e+00 7.8238660e-04 
0.0000000e+00 0.0000000e+00 0.0000000e+00 
-8.1295548e-05 0.0000000e+00 1.0943893e-03 
0.0000000e+00 0.0000000e+00 0.0000000e+00 
-8.1295548e-05 0.0000000e+00 1.0943893e-03 
0.0000000e+00 0.0000000e+00 0.0000000e+00 
-1.0748903e-04 0.0000000e+00 1.4627452e-03 
0.0000000e+00 0.0000000e+00 0.0000000e+00 
0.0000000e+00 0.0000000e+00 0.0000000e+00 
-1.0748903e-04 0.0000000e+00 1.4627452e-03 
0.0000000e+00 0.0000000e+00 0.0000000e+00 
0.0000000e+00 0.0000000e+00 0.0000000e+00 
-1.3407534e-04 0.0000000e+00 1.8456669e-03 
0.0000000e+00 0.0000000e+00 0.0000000e+00 
-1.3407534e-04 0.0000000e+00 1.8456669e-03 
0.0000000e+00 0.0000000e+00 0.0000000e+00 
-1.5950853e-04 0.0000000e+00 2.2213058e-03 
0.0000000e+00 0.0000000e+00 0.0000000e+00 
-1.5950853e-04 0.0000000e+00 2.2213058e-03 
0.0000000e+00 0.0000000e+00 0.0000000e+00 
0.0000000e+00 0.0000000e+00 0.0000000e+00 
-1.8381986e-04 0.0000000e+00 2.5897352e-03 
0.0000000e+00 0.0000000e+00 0.0000000e+00 
-1.8381986e-04 0.0000000e+00 2.5897352e-03 
0.0000000e+00 0.0000000e+00 0.0000000e+00 
-2.0704017e-04 0.0000000e+00 2.9510268e-03 
0.0000000e+00 0.0000000e+00 0.0000000e+00 
-2.0704017e-04 0.0000000e+00 2.9510268e-03 
0.0000000e+00 0.0000000e+00 0.0000000e+00 
-2.2919972e-04 0.0000000e+00 3.3052526e-03 
0.0000000e+00 0.0000000e+00 0.0000000e+00 
-2.2919972e-04 0.0000000e+00 3.3052526e-03 
0.0000000e+00 0.0000000e+00 0.0000000e+00 
-2.5032818e-04 0.0000000e+00 3.6524876e-03 
0.0000000e+00 0.0000000e+00 0.0000000e+00 
-2.5032818e-04 0.0000000e+00 3.6524876e-03 
0.0000000e+00 0.0000000e+00 0.0000000e+00 
0.0000000e+00 0.0000000e+00 0.0000000e+00 
-2.7045443e-04 0.0000000e+00 3.9928026e-03 
0.0000000e+00 0.0000000e+00 0.0000000e+00 
-2.7045443e-04 0.0000000e+00 3.9928026e-03 
0.0000000e+00 0.0000000e+00 0.0000000e+00 
-2.8960662e-04 0.0000000e+00 4.3262675e-03 
0.0000000e+00 0.0000000e+00 0.0000000e+00 
-2.8960662e-04 0.0000000e+00 4.3262675e-03 
0.0000000e+00 0.0000000e+00 0.0000000e+00 
-3.0781226e-04 0.0000000e+00 4.6529542e-03 
0.0000000e+00 0.0000000e+00 0.0000000e+00 
-3.0781226e-04 0.0000000e+00 4.6529542e-03 
0.0000000e+00 0.0000000e+00 0.0000000e+00 
0.0000000e+00 0.0000000e+00 0.0000000e+00 
-3.2509803e-04 0.0000000e+00 4.9729300e-03 
-3.2509803e-04 0.0000000e+00 4.9729300e-03 
0.0000000e+00 0.0000000e+00 0.0000000e+00 
0.0000000e+00 0.0000000e+00 0.0000000e+00 
-3.4148993e-04 0.0000000e+00 5.2862622e-03 
-3.4148993e-04 0.0000000e+00 5.2862622e-03 
0.0000000e+00 0.0000000e+00 0.0000000e+00 
0.0000000e+00 0.0000000e+00 0.0000000e+00 
-3.5701324e-04 0.0000000e+00 5.5930156e-03 
-3.5701324e-04 0.0000000e+00 5.5930156e-03 
0.0000000e+00 0.0000000e+00 0.0000000e+00 
0.0000000e+00 0.0000000e+00 0.0000000e+00 
-3.7169261e-04 0.0000000e+00 5.8932563e-03 
-3.7169261e-04 0.0000000e+00 5.8932563e-03 
0.0000000e+00 0.0000000e+00 0.0000000e+00 
0.0000000e+00 0.0000000e+00 0.0000000e+00 
-3.8555199e-04 0.0000000e+00 6.1870468e-03 
0.0000000e+00 0.0000000e+00 0.0000000e+00 
-3.8555199e-04 0.0000000e+00 6.1870468e-03 
0.0000000e+00 0.0000000e+00 0.0000000e+00 
-3.9861467e-04 0.0000000e+00 6.4744475e-03 
0.0000000e+00 0.0000000e+00 0.0000000e+00 
-3.9861467e-04 0.0000000e+00 6.4744475e-03 
0.0000000e+00 0.0000000e+00 0.0000000e+00 
-4.1090340e-04 0.0000000e+00 6.7555208e-03 
0.0000000e+00 0.0000000e+00 0.0000000e+00 
-4.1090340e-04 0.0000000e+00 6.7555208e-03 
0.0000000e+00 0.0000000e+00 0.0000000e+00 
0.0000000e+00 0.0000000e+00 0.0000000e+00 
-4.2244028e-04 0.0000000e+00 7.0303252e-03 
0.0000000e+00 0.0000000e+00 0.0000000e+00 
-4.2244028e-04 0.0000000e+00 7.0303252e-03 
0.0000000e+00 0.0000000e+00 0.0000000e+00 
-4.3324681e-04 0.0000000e+00 7.2989174e-03 
0.0000000e+00 0.0000000e+00 0.0000000e+00 
-4.3324681e-04 0.0000000e+00 7.2989174e-03 
0.0000000e+00 0.0000000e+00 0.0000000e+00 
0.0000000e+00 0.0000000e+00 0.0000000e+00 
-4.4334403e-04 0.0000000e+00 7.5613562e-03 
-4.4334403e-04 0.0000000e+00 7.5613562e-03 
0.0000000e+00 0.0000000e+00 0.0000000e+00 
0.0000000e+00 0.0000000e+00 0.0000000e+00 
-4.5275237e-04 0.0000000e+00 7.8176964e-03 
-4.5275237e-04 0.0000000e+00 7.8176964e-03 
0.0000000e+00 0.0000000e+00 0.0000000e+00 
0.0000000e+00 0.0000000e+00 0.0000000e+00 
-4.6149178e-04 0.0000000e+00 8.0679918e-03 
-4.6149178e-04 0.0000000e+00 8.0679918e-03 
0.0000000e+00 0.0000000e+00 0.0000000e+00 
0.0000000e+00 0.0000000e+00 0.0000000e+00 
-4.6958167e-04 0.0000000e+00 8.3122963e-03 
-4.6958167e-04 0.0000000e+00 8.3122963e-03 
0.0000000e+00 0.0000000e+00 0.0000000e+00 
0.0000000e+00 0.0000000e+00 0.0000000e+00 
-4.7704108e-04 0.0000000e+00 8.5506637e-03 
-4.7704108e-04 0.0000000e+00 8.5506637e-03 
0.0000000e+00 0.0000000e+00 0.0000000e+00 
0.0000000e+00 0.0000000e+00 0.0000000e+00 
-4.8388848e-04 0.0000000e+00 8.7831442e-03 
0.0000000e+00 0.0000000e+00 0.0000000e+00 
-4.8388848e-04 0.0000000e+00 8.7831442e-03 
0.0000000e+00 0.0000000e+00 0.0000000e+00 
-1.9983693e-05 0.0000000e+00 5.8878579e-04 
-4.9014188e-04 0.0000000e+00 9.0097865e-03 
-1.9983693e-05 0.0000000e+00 5.8878579e-04 
-4.9014188e-04 0.0000000e+00 9.0097865e-03 
-3.3656051e-05 0.0000000e+00 1.2001367e-03 
-4.9581903e-04 0.0000000e+00 9.2306440e-03 
-3.3656051e-05 0.0000000e+00 1.2001367e-03 
-4.9581903e-04 0.0000000e+00 9.2306440e-03 
-4.3302595e-05 0.0000000e+00 1.8039617e-03 
-4.3302595e-05 0.0000000e+00 1.8039617e-03 
-5.0093708e-04 0.0000000e+00 9.4457636e-03 
-5.0093708e-04 0.0000000e+00 9.4457636e-03 
-5.0196084e-05 0.0000000e+00 2.3890851e-03 
-5.0196084e-05 0.0000000e+00 2.3890851e-03 
-5.0551283e-04 0.0000000e+00 9.6551912e-03 
-5.0551283e-04 0.0000000e+00 9.6551912e-03 
-5.4593126e-05 0.0000000e+00 2.9563864e-03 
-5.4593126e-05 0.0000000e+00 2.9563864e-03 
-5.0956278e-04 0.0000000e+00 9.8589776e-03 
-5.0956278e-04 0.0000000e+00 9.8589776e-03 
-5.6706152e-05 0.0000000e+00 3.5065585e-03 
-5.6706152e-05 0.0000000e+00 3.5065585e-03 
-5.1310295e-04 0.0000000e+00 1.0057167e-02 
-5.1310295e-04 0.0000000e+00 1.0057167e-02 
-5.6723612e-05 0.0000000e+00 4.0402033e-03 
-5.6723612e-05 0.0000000e+00 4.0402033e-03 
-5.1614901e-04 0.0000000e+00 1.0249804e-02 
-5.1614901e-04 0.0000000e+00 1.0249804e-02 
-5.4814899e-05 0.0000000e+00 4.5578710e-03 
-5.4814899e-05 0.0000000e+00 4.5578710e-03 
-5.1871635e-04 0.0000000e+00 1.0436935e-02 
-5.1133577e-05 0.0000000e+00 5.0600523e-03 
-5.1871635e-04 0.0000000e+00 1.0436935e-02 
-5.1133577e-05 0.0000000e+00 5.0600523e-03 
-4.5819658e-05 0.0000000e+00 5.5472036e-03 
-5.2081995e-04 0.0000000e+00 1.0618604e-02 
-4.5819658e-05 0.0000000e+00 5.5472036e-03 
-5.2081995e-04 0.0000000e+00 1.0618604e-02 
-3.9001987e-05 0.0000000e+00 6.0197430e-03 
-5.2247447e-04 0.0000000e+00 1.0794853e-02 
-3.9001987e-05 0.0000000e+00 6.0197430e-03 
-5.2247447e-04 0.0000000e+00 1.0794853e-02 
-3.0799096e-05 0.0000000e+00 6.4780584e-03 
-3.0799096e-05 0.0000000e+00 6.4780584e-03 
-5.2369427e-04 0.0000000e+00 1.0965726e-02 
-5.2369427e-04 0.0000000e+00 1.0965726e-02 
-2.1320915e-05 0.0000000e+00 6.9225165e-03 
-2.1320915e-05 0.0000000e+00 6.9225165e-03 
-5.2449340e-04 0.0000000e+00 1.1131265e-02 
-5.2449340e-04 0.0000000e+00 1.1131265e-02 
-1.0669754e-05 0.0000000e+00 7.3534549e-03 
-1.0669754e-05 0.0000000e+00 7.3534549e-03 
-5.2488558e-04 0.0000000e+00 1.1291510e-02 
-5.2488558e-04 0.0000000e+00 1.1291510e-02 
1.0592188e-06 0.0000000e+00 7.7711995e-03 
1.0592188e-06 0.0000000e+00 7.7711995e-03 
-5.2488425e-04 0.0000000e+00 1.1446503e-02 
-5.2488425e-04 0.0000000e+00 1.1446503e-02 
1.3776812e-05 0.0000000e+00 8.1760511e-03 
1.3776812e-05 0.0000000e+00 8.1760511e-03 
-5.2450259e-04 0.0000000e+00 1.1596285e-02 
-5.2450259e-04 0.0000000e+00 1.1596285e-02 
2.7399733e-05 0.0000000e+00 8.5683019e-03 
2.7399733e-05 0.0000000e+00 8.5683019e-03 
-5.2375347e-04 0.0000000e+00 1.1740894e-02 
-5.2375347e-04 0.0000000e+00 1.1740894e-02 
4.1849500e-05 0.0000000e+00 8.9482256e-03 
4.1849500e-05 0.0000000e+00 8.9482256e-03 
-5.2264949e-04 0.0000000e+00 1.1880370e-02 
-5.2264949e-04 0.0000000e+00 1.1880370e-02 
5.7052569e-05 0.0000000e+00 9.3160846e-03 
5.7052569e-05 0.0000000e+00 9.3160846e-03 
-5.2120303e-04 0.0000000e+00 1.2014752e-02 
7.2939671e-05 0.0000000e+00 9.6721323e-03 
-5.2120303e-04 0.0000000e+00 1.2014752e-02 
7.2939671e-05 0.0000000e+00 9.6721323e-03 
-5.1942616e-04 0.0000000e+00 1.2144077e-02 
8.9445261e-05 0.0000000e+00 1.0016606e-02 
-5.1942616e-04 0.0000000e+00 1.2144077e-02 
8.9445261e-05 0.0000000e+00 1.0016606e-02 
1.0650777e-04 0.0000000e+00 1.0349740e-02 
-5.1733073e-04 0.0000000e+00 1.2268385e-02 
1.0650777e-04 0.0000000e+00 1.0349740e-02 
-5.1733073e-04 0.0000000e+00 1.2268385e-02 
1.2406870e-04 0.0000000e+00 1.0671753e-02 
1.2406870e-04 0.0000000e+00 1.0671753e-02 
-5.1492833e-04 0.0000000e+00 1.2387710e-02 
-5.1492833e-04 0.0000000e+00 1.2387710e-02 
1.4207301e-04 0.0000000e+00 1.0982862e-02 
1.4207301e-04 0.0000000e+00 1.0982862e-02 
-5.1223036e-04 0.0000000e+00 1.2502091e-02 
-5.1223036e-04 0.0000000e+00 1.2502091e-02 
1.6046830e-04 0.0000000e+00 1.1283271e-02 
1.6046830e-04 0.0000000e+00 1.1283271e-02 
-5.0924793e-04 0.0000000e+00 1.2611564e-02 
-5.0924793e-04 0.0000000e+00 1.2611564e-02 
1.7920520e-04 0.0000000e+00 1.1573180e-02 
1.7920520e-04 0.0000000e+00 1.1573180e-02 
-5.0599195e-04 0.0000000e+00 1.2716164e-02 
-5.0599195e-04 0.0000000e+00 1.2716164e-02 
1.9823663e-04 0.0000000e+00 1.1852782e-02 
1.9823663e-04 0.0000000e+00 1.1852782e-02 
-5.0247315e-04 0.0000000e+00 1.2815926e-02 
-5.0247315e-04 0.0000000e+00 1.2815926e-02 
2.1751811e-04 0.0000000e+00 1.2122262e-02 
2.1751811e-04 0.0000000e+00 1.2122262e-02 
-4.9870197e-04 0.0000000e+00 1.2910888e-02 
-4.9870197e-04 0.0000000e+00 1.2910888e-02 
2.3700747e-04 0.0000000e+00 1.2381803e-02 
2.3700747e-04 0.0000000e+00 1.2381803e-02 
-4.9468868e-04 0.0000000e+00 1.3001081e-02 
-4.9468868e-04 0.0000000e+00 1.3001081e-02 
2.5666438e-04 0.0000000e+00 1.2631577e-02 
2.5666438e-04 0.0000000e+00 1.2631577e-02 
-4.9044338e-04 0.0000000e+00 1.3086541e-02 
-4.9044338e-04 0.0000000e+00 1.3086541e-02 
2.7645089e-04 0.0000000e+00 1.2871757e-02 
2.7645089e-04 0.0000000e+00 1.2871757e-02 
-4.8597591e-04 0.0000000e+00 1.3167302e-02 
-4.8597591e-04 0.0000000e+00 1.3167302e-02 
2.9633061e-04 0.0000000e+00 1.3102506e-02 
2.9633061e-04 0.0000000e+00 1.3102506e-02 
-4.8129594e-04 0.0000000e+00 1.3243396e-02 
-4.8129594e-04 0.0000000e+00 1.3243396e-02 
3.1626922e-04 0.0000000e+00 1.3323986e-02 
3.1626922e-04 0.0000000e+00 1.3323986e-02 
-4.7641299e-04 0.0000000e+00 1.3314858e-02 
-4.7641299e-04 0.0000000e+00 1.3314858e-02 
3.3623385e-04 0.0000000e+00 1.3536352e-02 
3.3623385e-04 0.0000000e+00 1.3536352e-02 
-4.7133631e-04 0.0000000e+00 1.3381721e-02 
3.5619349e-04 0.0000000e+00 1.3739757e-02 
-4.7133631e-04 0.0000000e+00 1.3381721e-02 
3.5619349e-04 0.0000000e+00 1.3739757e-02 
3.7611840e-04 0.0000000e+00 1.3934349e-02 
-4.6607503e-04 0.0000000e+00 1.3444017e-02 
3.7611840e-04 0.0000000e+00 1.3934349e-02 
-4.6607503e-04 0.0000000e+00 1.3444017e-02 
3.9598047e-04 0.0000000e+00 1.4120273e-02 
-4.6063809e-04 0.0000000e+00 1.3501775e-02 
3.9598047e-04 0.0000000e+00 1.4120273e-02 
-4.6063809e-04 0.0000000e+00 1.3501775e-02 
4.1575302e-04 0.0000000e+00 1.4297670e-02 
4.1575302e-04 0.0000000e+00 1.4297670e-02 
-4.5503425e-04 0.0000000e+00 1.3555032e-02 
-4.5503425e-04 0.0000000e+00 1.3555032e-02 
4.3541042e-04 0.0000000e+00 1.4466677e-02 
4.3541042e-04 0.0000000e+00 1.4466677e-02 
-4.4927211e-04 0.0000000e+00 1.3603817e-02 
-4.4927211e-04 0.0000000e+00 1.3603817e-02 
4.5492860e-04 0.0000000e+00 1.4627430e-02 
4.5492860e-04 0.0000000e+00 1.4627430e-02 
-4.4336006e-04 0.0000000e+00 1.3648161e-02 
-4.4336006e-04 0.0000000e+00 1.3648161e-02 
4.7428440e-04 0.0000000e+00 1.4780059e-02 
4.7428440e-04 0.0000000e+00 1.4780059e-02 
-4.3730637e-04 0.0000000e+00 1.3688096e-02 
-4.3730637e-04 0.0000000e+00 1.3688096e-02 
4.9345607e-04 0.0000000e+00 1.4924694e-02 
4.9345607e-04 0.0000000e+00 1.4924694e-02 
-4.3111918e-04 0.0000000e+00 1.3723651e-02 
-4.3111918e-04 0.0000000e+00 1.3723651e-02 
5.1242269e-04 0.0000000e+00 1.5061459e-02 
5.1242269e-04 0.0000000e+00 1.5061459e-02 
-4.2480636e-04 0.0000000e+00 1.3754859e-02 
-4.2480636e-04 0.0000000e+00 1.3754859e-02 
5.3116455e-04 0.0000000e+00 1.5190479e-02 
5.3116455e-04 0.0000000e+00 1.5190479e-02 
-4.1837574e-04 0.0000000e+00 1.3781749e-02 
-4.1837574e-04 0.0000000e+00 1.3781749e-02 
5.4966299e-04 0.0000000e+00 1.5311874e-02 
5.4966299e-04 0.0000000e+00 1.5311874e-02 
-4.1183497e-04 0.0000000e+00 1.3804350e-02 
-4.1183497e-04 0.0000000e+00 1.3804350e-02 
5.6790004e-04 0.0000000e+00 1.5425763e-02 
5.6790004e-04 0.0000000e+00 1.5425763e-02 
-4.0519148e-04 0.0000000e+00 1.3822692e-02 
-4.0519148e-04 0.0000000e+00 1.3822692e-02 
5.8585895e-04 0.0000000e+00 1.5532260e-02 
5.8585895e-04 0.0000000e+00 1.5532260e-02 
-3.9845264e-04 0.0000000e+00 1.3836806e-02 
-3.9845264e-04 0.0000000e+00 1.3836806e-02 
6.0352361e-04 0.0000000e+00 1.5631481e-02 
6.0352361e-04 0.0000000e+00 1.5631481e-02 
-3.9162566e-04 0.0000000e+00 1.3846719e-02 
-3.9162566e-04 0.0000000e+00 1.3846719e-02 
6.2087884e-04 0.0000000e+00 1.5723534e-02 
6.2087884e-04 0.0000000e+00 1.5723534e-02 
-3.8471759e-04 0.0000000e+00 1.3852463e-02 
-3.8471759e-04 0.0000000e+00 1.3852463e-02 
6.3790999e-04 0.0000000e+00 1.5808524e-02 
6.3790999e-04 0.0000000e+00 1.5808524e-02 
-3.7773534e-04 0.0000000e+00 1.3854065e-02 
-3.7773534e-04 0.0000000e+00 1.3854065e-02 
6.5452373e-04 0.0000000e+00 1.5886209e-02 
6.5452373e-04 0.0000000e+00 1.5886209e-02 
-3.7066456e-04 0.0000000e+00 1.3851539e-02 
-3.7066456e-04 0.0000000e+00 1.3851539e-02 
6.7400286e-04 0.0000000e+00 1.5970513e-02 
6.7400286e-04 0.0000000e+00 1.5970513e-02 
-3.6209940e-04 0.0000000e+00 1.3843084e-02 
-3.6209940e-04 0.0000000e+00 1.3843084e-02 
6.9669119e-04 0.0000000e+00 1.6059053e-02 
6.9669119e-04 0.0000000e+00 1.6059053e-02 
-3.5172079e-04 0.0000000e+00 1.3825198e-02 
-3.5172079e-04 0.0000000e+00 1.3825198e-02 
7.2288377e-04 0.0000000e+00 1.6147496e-02 
7.2288377e-04 0.0000000e+00 1.6147496e-02 
-3.3927559e-04 0.0000000e+00 1.3793092e-02 
-3.3927559e-04 0.0000000e+00 1.3793092e-02 
7.4920842e-04 0.0000000e+00 1.6220179e-02 
7.4920842e-04 0.0000000e+00 1.6220179e-02 
-3.2673250e-04 0.0000000e+00 1.3749320e-02 
-3.2673250e-04 0.0000000e+00 1.3749320e-02 
7.7417147e-04 0.0000000e+00 1.6272385e-02 
7.7417147e-04 0.0000000e+00 1.6272385e-02 
-3.1412144e-04 0.0000000e+00 1.3694018e-02 
-3.1412144e-04 0.0000000e+00 1.3694018e-02 
7.9772532e-04 0.0000000e+00 1.6304673e-02 
7.9772532e-04 0.0000000e+00 1.6304673e-02 
-3.0147130e-04 0.0000000e+00 1.3627324e-02 
-3.0147130e-04 0.0000000e+00 1.3627324e-02 
8.1982765e-04 0.0000000e+00 1.6317583e-02 
8.1982765e-04 0.0000000e+00 1.6317583e-02 
-2.8880994e-04 0.0000000e+00 1.3549372e-02 
-2.8880994e-04 0.0000000e+00 1.3549372e-02 
8.4044121e-04 0.0000000e+00 1.6311633e-02 
8.4044121e-04 0.0000000e+00 1.6311633e-02 
-2.7616434e-04 0.0000000e+00 1.3460296e-02 
-2.7616434e-04 0.0000000e+00 1.3460296e-02 
8.5953409e-04 0.0000000e+00 1.6287333e-02 
8.5953409e-04 0.0000000e+00 1.6287333e-02 
-2.6356041e-04 0.0000000e+00 1.3360228e-02 
-2.6356041e-04 0.0000000e+00 1.3360228e-02 
8.7707878e-04 0.0000000e+00 1.6245178e-02 
8.7707878e-04 0.0000000e+00 1.6245178e-02 
-2.5102320e-04 0.0000000e+00 1.3249298e-02 
-2.5102320e-04 0.0000000e+00 1.3249298e-02 
8.9305253e-04 0.0000000e+00 1.6185652e-02 