# vtk DataFile Version 4.0
vtk output
ASCII
DATASET UNSTRUCTURED_GRID
POINTS 824 float
-6.4148600e-05 1.0000000e-02 -4.4525366e-03 
-1.0680180e-04 1.0000000e-02 -2.8088474e-03 
3.4513260e-04 1.0000000e-02 -6.0450544e-03 
1.3803532e-03 1.0000000e-02 -7.3230534e-03 
6.5829700e-05 1.0000000e-02 -1.1736922e-03 
2.7142144e-03 1.0000000e-02 -8.2851896e-03 
5.0392030e-04 1.0000000e-02 6.5784910e-04 
4.1780764e-03 1.0000000e-02 -9.0342357e-03 
1.1628646e-03 1.0000000e-02 2.4220088e-03 
5.7070961e-03 1.0000000e-02 -9.6390187e-03 
2.0046218e-03 1.0000000e-02 4.1066196e-03 
7.2731595e-03 1.0000000e-02 -1.0140047e-02 
-6.4148600e-05 0.0000000e+00 -4.4525366e-03 
-1.0680180e-04 0.0000000e+00 -2.8088474e-03 
3.4513260e-04 0.0000000e+00 -6.0450544e-03 
1.3803532e-03 0.0000000e+00 -7.3230534e-03 
6.5829700e-05 0.0000000e+00 -1.1736922e-03 
2.9952540e-03 1.0000000e-02 5.7082181e-03 
8.8622628e-03 1.0000000e-02 -1.0562311e-02 
2.7142144e-03 0.0000000e+00 -8.2851896e-03 
5.0392030e-04 0.0000000e+00 6.5784910e-04 
4.1780764e-03 0.0000000e+00 -9.0342357e-03 
1.1628646e-03 0.0000000e+00 2.4220088e-03 
1.0466628e-02 1.0000000e-02 -1.0922252e-02 
4.1067238e-03 1.0000000e-02 7.2284501e-03 
5.7070961e-03 0.0000000e+00 -9.6390187e-03 
2.0046218e-03 0.0000000e+00 4.1066196e-03 
7.2731595e-03 0.0000000e+00 -1.0140047e-02 
1.2081579e-02 1.0000000e-02 -1.1231240e-02 
5.3166988e-03 1.0000000e-02 8.6715129e-03 
2.9952540e-03 0.0000000e+00 5.7082181e-03 
8.8622628e-03 0.0000000e+00 -1.0562311e-02 
1.3704120e-02 1.0000000e-02 -1.1497501e-02 
1.0466628e-02 0.0000000e+00 -1.0922252e-02 
4.1067238e-03 0.0000000e+00 7.2284501e-03 
6.6076374e-03 1.0000000e-02 1.0042624e-02 
1.5332244e-02 1.0000000e-02 -1.1727173e-02 
1.2081579e-02 0.0000000e+00 -1.1231240e-02 
5.3166988e-03 0.0000000e+00 8.6715129e-03 
7.9658343e-03 1.0000000e-02 1.1347144e-02 
1.3704120e-02 0.0000000e+00 -1.1497501e-02 
1.6964543e-02 1.0000000e-02 -1.1925002e-02 
6.6076374e-03 0.0000000e+00 1.0042624e-02 
9.3804686e-03 1.0000000e-02 1.2590236e-02 
1.5332244e-02 0.0000000e+00 -1.1727173e-02 
1.8600004e-02 1.0000000e-02 -1.2094716e-02 
7.9658343e-03 0.0000000e+00 1.1347144e-02 
1.6964543e-02 0.0000000e+00 -1.1925002e-02 
1.0843002e-02 1.0000000e-02 1.3776601e-02 
2.0237876e-02 1.0000000e-02 -1.2239318e-02 
9.3804686e-03 0.0000000e+00 1.2590236e-02 
1.8600004e-02 0.0000000e+00 -1.2094716e-02 
1.2346566e-02 1.0000000e-02 1.4910517e-02 
2.1877591e-02 1.0000000e-02 -1.2361246e-02 
1.0843002e-02 0.0000000e+00 1.3776601e-02 
2.0237876e-02 0.0000000e+00 -1.2239318e-02 
1.3885623e-02 1.0000000e-02 1.5995768e-02 
2.3518711e-02 1.0000000e-02 -1.2462540e-02 
1.2346566e-02 0.0000000e+00 1.4910517e-02 
2.1877591e-02 0.0000000e+00 -1.2361246e-02 
2.5160890e-02 1.0000000e-02 -1.2544903e-02 
1.5455654e-02 1.0000000e-02 1.7035707e-02 
1.3885623e-02 0.0000000e+00 1.5995768e-02 
2.3518711e-02 0.0000000e+00 -1.2462540e-02 
2.6803852e-02 1.0000000e-02 -1.2609772e-02 
1.7052912e-02 1.0000000e-02 1.8033321e-02 
2.5160890e-02 0.0000000e+00 -1.2544903e-02 
1.5455654e-02 0.0000000e+00 1.7035707e-02 
2.8447376e-02 1.0000000e-02 -1.2658389e-02 
2.6803852e-02 0.0000000e+00 -1.2609772e-02 
1.7052912e-02 0.0000000e+00 1.8033321e-02 
1.8674284e-02 1.0000000e-02 1.8991246e-02 
3.0091279e-02 1.0000000e-02 -1.2691814e-02 
2.8447376e-02 0.0000000e+00 -1.2658389e-02 
1.8674284e-02 0.0000000e+00 1.8991246e-02 
2.0317149e-02 1.0000000e-02 1.9911822e-02 
3.0091279e-02 0.0000000e+00 -1.2691814e-02 
3.1735410e-02 1.0000000e-02 -1.2710971e-02 
2.0317149e-02 0.0000000e+00 1.9911822e-02 
2.1979295e-02 1.0000000e-02 2.0797113e-02 
3.1735410e-02 0.0000000e+00 -1.2710971e-02 
3.3379643e-02 1.0000000e-02 -1.2716676e-02 
2.1979295e-02 0.0000000e+00 2.0797113e-02 
2.3658832e-02 1.0000000e-02 2.1648949e-02 
3.3379643e-02 0.0000000e+00 -1.2716676e-02 
3.5023871e-02 1.0000000e-02 -1.2709629e-02 
2.3658832e-02 0.0000000e+00 2.1648949e-02 
2.5354100e-02 1.0000000e-02 2.2469029e-02 
3.5023871e-02 0.0000000e+00 -1.2709629e-02 
3.6668001e-02 1.0000000e-02 -1.2690457e-02 
2.5354100e-02 0.0000000e+00 2.2469029e-02 
2.7063712e-02 1.0000000e-02 2.3258772e-02 
3.6668001e-02 0.0000000e+00 -1.2690457e-02 
3.8312016e-02 1.0000000e-02 -1.2663038e-02 
2.7063712e-02 0.0000000e+00 2.3258772e-02 
3.8312016e-02 0.0000000e+00 -1.2663038e-02 
2.8786417e-02 1.0000000e-02 2.4019532e-02 
3.9956032e-02 1.0000000e-02 -1.2635752e-02 
2.8786417e-02 0.0000000e+00 2.4019532e-02 
3.9956032e-02 0.0000000e+00 -1.2635752e-02 
3.0521135e-02 1.0000000e-02 2.4752486e-02 
4.1600048e-02 1.0000000e-02 -1.2608467e-02 
3.0521135e-02 0.0000000e+00 2.4752486e-02 
4.1600048e-02 0.0000000e+00 -1.2608467e-02 
3.2266919e-02 1.0000000e-02 2.5458676e-02 
4.3299814e-02 1.0000000e-02 -1.2580255e-02 
3.2266919e-02 0.0000000e+00 2.5458676e-02 
4.3299814e-02 0.0000000e+00 -1.2580255e-02 
3.4022902e-02 1.0000000e-02 2.6139111e-02 
4.5339533e-02 1.0000000e-02 -1.2546402e-02 
3.4022902e-02 0.0000000e+00 2.6139111e-02 
4.5339533e-02 0.0000000e+00 -1.2546402e-02 
3.5788340e-02 1.0000000e-02 2.6794623e-02 
4.7787196e-02 1.0000000e-02 -1.2505778e-02 
3.5788340e-02 0.0000000e+00 2.6794623e-02 
3.7562554e-02 1.0000000e-02 2.7425996e-02 
4.7787196e-02 0.0000000e+00 -1.2505778e-02 
3.7562554e-02 0.0000000e+00 2.7425996e-02 
3.9344928e-02 1.0000000e-02 2.8033950e-02 
5.0379113e-02 1.0000000e-02 -1.2462760e-02 
3.9344928e-02 0.0000000e+00 2.8033950e-02 
5.0379113e-02 0.0000000e+00 -1.2462760e-02 
4.1134916e-02 1.0000000e-02 2.8619109e-02 
5.2971029e-02 1.0000000e-02 -1.2419741e-02 
4.1134916e-02 0.0000000e+00 2.8619109e-02 
5.2971029e-02 0.0000000e+00 -1.2419741e-02 
4.2932026e-02 1.0000000e-02 2.9182016e-02 
4.2932026e-02 0.0000000e+00 2.9182016e-02 
5.5562946e-02 1.0000000e-02 -1.2376723e-02 
4.5339682e-02 1.0000000e-02 2.9899231e-02 
5.5562946e-02 0.0000000e+00 -1.2376723e-02 
4.5339682e-02 0.0000000e+00 2.9899231e-02 
5.8154863e-02 1.0000000e-02 -1.2333705e-02 
4.7758221e-02 1.0000000e-02 3.0578844e-02 
5.8154863e-02 0.0000000e+00 -1.2333705e-02 
4.7758221e-02 0.0000000e+00 3.0578844e-02 
6.0746779e-02 1.0000000e-02 -1.2290686e-02 
5.0186760e-02 1.0000000e-02 3.1221807e-02 
6.0746779e-02 0.0000000e+00 -1.2290686e-02 
5.0186760e-02 0.0000000e+00 3.1221807e-02 
6.3338696e-02 1.0000000e-02 -1.2247668e-02 
5.2624513e-02 1.0000000e-02 3.1828903e-02 
6.3338696e-02 0.0000000e+00 -1.2247668e-02 
5.2624513e-02 0.0000000e+00 3.1828903e-02 
5.5070762e-02 1.0000000e-02 3.2400804e-02 
6.5930613e-02 1.0000000e-02 -1.2204650e-02 
5.5070762e-02 0.0000000e+00 3.2400804e-02 
6.5930613e-02 0.0000000e+00 -1.2204650e-02 
5.7524847e-02 1.0000000e-02 3.2938082e-02 
6.8522529e-02 1.0000000e-02 -1.2161631e-02 
5.7524847e-02 0.0000000e+00 3.2938082e-02 
6.8522529e-02 0.0000000e+00 -1.2161631e-02 
5.9986169e-02 1.0000000e-02 3.3441170e-02 
7.1114446e-02 1.0000000e-02 -1.2118613e-02 
5.9986169e-02 0.0000000e+00 3.3441170e-02 
7.1114446e-02 0.0000000e+00 -1.2118613e-02 
6.2454163e-02 1.0000000e-02 3.3910436e-02 
6.2454163e-02 0.0000000e+00 3.3910436e-02 
7.3706362e-02 1.0000000e-02 -1.2075595e-02 
7.3706362e-02 0.0000000e+00 -1.2075595e-02 
6.4928303e-02 1.0000000e-02 3.4346139e-02 
6.4928303e-02 0.0000000e+00 3.4346139e-02 
7.6298279e-02 1.0000000e-02 -1.2032577e-02 
7.6298279e-02 0.0000000e+00 -1.2032577e-02 
6.7408092e-02 1.0000000e-02 3.4748446e-02 
6.7408092e-02 0.0000000e+00 3.4748446e-02 
7.8890196e-02 1.0000000e-02 -1.1989558e-02 
7.8890196e-02 0.0000000e+00 -1.1989558e-02 
6.9893057e-02 1.0000000e-02 3.5117436e-02 
6.9893057e-02 0.0000000e+00 3.5117436e-02 
8.1482112e-02 1.0000000e-02 -1.1946540e-02 
8.1482112e-02 0.0000000e+00 -1.1946540e-02 
7.2382742e-02 1.0000000e-02 3.5453098e-02 
7.2382742e-02 0.0000000e+00 3.5453098e-02 
8.4074029e-02 1.0000000e-02 -1.1903522e-02 
7.4876707e-02 1.0000000e-02 3.5755332e-02 
8.4074029e-02 0.0000000e+00 -1.1903522e-02 
7.4876707e-02 0.0000000e+00 3.5755332e-02 
8.6665946e-02 1.0000000e-02 -1.1860503e-02 
7.7374516e-02 1.0000000e-02 3.6023948e-02 
8.6665946e-02 0.0000000e+00 -1.1860503e-02 
7.7374516e-02 0.0000000e+00 3.6023948e-02 
8.9257862e-02 1.0000000e-02 -1.1817485e-02 
7.9875738e-02 1.0000000e-02 3.6258665e-02 
8.9257862e-02 0.0000000e+00 -1.1817485e-02 
7.9875738e-02 0.0000000e+00 3.6258665e-02 
8.2379940e-02 1.0000000e-02 3.6459105e-02 
9.1849779e-02 1.0000000e-02 -1.1774467e-02 
8.2379940e-02 0.0000000e+00 3.6459105e-02 
9.1849779e-02 0.0000000e+00 -1.1774467e-02 
8.4886681e-02 1.0000000e-02 3.6624786e-02 
9.4441696e-02 1.0000000e-02 -1.1731448e-02 
8.4886681e-02 0.0000000e+00 3.6624786e-02 
9.4441696e-02 0.0000000e+00 -1.1731448e-02 
8.7395510e-02 1.0000000e-02 3.6755108e-02 
8.7395510e-02 0.0000000e+00 3.6755108e-02 
9.7033612e-02 1.0000000e-02 -1.1688430e-02 
9.7033612e-02 0.0000000e+00 -1.1688430e-02 
8.9905951e-02 1.0000000e-02 3.6849401e-02 
8.9905951e-02 0.0000000e+00 3.6849401e-02 
9.9625529e-02 1.0000000e-02 -1.1645412e-02 
9.9625529e-02 0.0000000e+00 -1.1645412e-02 
9.2417505e-02 1.0000000e-02 3.6906832e-02 
9.2417505e-02 0.0000000e+00 3.6906832e-02 
1.0221745e-01 1.0000000e-02 -1.1602393e-02 
1.0221745e-01 0.0000000e+00 -1.1602393e-02 
9.4929640e-02 1.0000000e-02 3.6926425e-02 
9.4929640e-02 0.0000000e+00 3.6926425e-02 
1.0480936e-01 1.0000000e-02 -1.1559375e-02 
1.0480936e-01 0.0000000e+00 -1.1559375e-02 
9.7441776e-02 1.0000000e-02 3.6907077e-02 
9.7441776e-02 0.0000000e+00 3.6907077e-02 
1.0740128e-01 1.0000000e-02 -1.1516357e-02 
1.0740128e-01 0.0000000e+00 -1.1516357e-02 
9.9953281e-02 1.0000000e-02 3.6847529e-02 
9.9953281e-02 0.0000000e+00 3.6847529e-02 
1.0999320e-01 1.0000000e-02 -1.1473339e-02 
1.0246345e-01 1.0000000e-02 3.6746314e-02 
1.0999320e-01 0.0000000e+00 -1.1473339e-02 
1.0246345e-01 0.0000000e+00 3.6746314e-02 
1.0497150e-01 1.0000000e-02 3.6601738e-02 
1.1258511e-01 1.0000000e-02 -1.1430320e-02 
1.0497150e-01 0.0000000e+00 3.6601738e-02 
1.1258511e-01 0.0000000e+00 -1.1430320e-02 
1.0747666e-01 1.0000000e-02 3.6413638e-02 
1.1517703e-01 1.0000000e-02 -1.1387302e-02 
1.0747666e-01 0.0000000e+00 3.6413638e-02 
[...]
POINT_DATA 824
FIELD FieldData 2
DISPLACEMENT 3 824  float
0.0000000e+00 0.0000000e+00 0.0000000e+00 
0.0000000e+00 0.0000000e+00 0.0000000e+00 
0.0000000e+00 0.0000000e+00 0.0000000e+00 
0.0000000e+00 0.0000000e+00 0.0000000e+00 
0.0000000e+00 0.0000000e+00 0.0000000e+00 
0.0000000e+00 0.0000000e+00 0.0000000e+00 
0.0000000e+00 0.0000000e+00 0.0000000e+00 
0.0000000e+00 0.0000000e+00 0.0000000e+00 
0.0000000e+00 0.0000000e+00 0.0000000e+00 
0.0000000e+00 0.0000000e+00 0.0000000e+00 
0.0000000e+00 0.0000000e+00 0.0000000e+00 
0.0000000e+00 0.0000000e+00 0.0000000e+00 
0.0000000e+00 0.0000000e+00 0.0000000e+00 
0.0000000e+00 0.0000000e+00 0.0000000e+00 
0.0000000e+00 0.0000000e+00 0.0000000e+00 
0.0000000e+00 0.0000000e+00 0.0000000e+00 
0.0000000e+00 0.0000000e+00 0.0000000e+00 
0.0000000e+00 0.0000000e+00 0.0000000e+00 
0.0000000e+00 0.0000000e+00 0.0000000e+00 
0.0000000e+00 0.0000000e+00 0.0000000e+00 
0.0000000e+00 0.0000000e+00 0.0000000e+00 
0.0000000e+00 0.0000000e+00 0.0000000e+00 
0.0000000e+00 0.0000000e+00 0.0000000e+00 
0.0000000e+00 0.0000000e+00 0.0000000e+00 
0.0000000e+00 0.0000000e+00 0.0000000e+00 
0.0000000e+00 0.0000000e+00 0.0000000e+00 
0.0000000e+00 0.0000000e+00 0.0000000e+00 
0.0000000e+00 0.0000000e+00 0.0000000e+00 
0.0000000e+00 0.0000000e+00 0.0000000e+00 
0.0000000e+00 0.0000000e+00 0.0000000e+00 
0.0000000e+00 0.0000000e+00 0.0000000e+00 
0.0000000e+00 0.0000000e+00 0.0000000e+00 
0.0000000e+00 0.0000000e+00 0.0000000e+00 
0.0000000e+00 0.0000000e+00 0.0000000e+00 
0.0000000e+00 0.0000000e+00 0.0000000e+00 
0.0000000e+00 0.0000000e+00 0.0000000e+00 
0.0000000e+00 0.0000000e+00 0.0000000e+00 
0.0000000e+00 0.0000000e+00 0.0000000e+00 
0.0000000e+00 0.0000000e+00 0.0000000e+00 
0.0000000e+00 0.0000000e+00 0.0000000e+00 
0.0000000e+00 0.0000000e+00 0.0000000e+00 
0.0000000e+00 0.0000000e+00 0.0000000e+00 
0.0000000e+00 0.0000000e+00 0.0000000e+00 
0.0000000e+00 0.0000000e+00 0.0000000e+00 
0.0000000e+00 0.0000000e+00 0.0000000e+00 
0.0000000e+00 0.0000000e+00 0.0000000e+00 
0.0000000e+00 0.0000000e+00 0.0000000e+00 
0.0000000e+00 0.0000000e+00 0.0000000e+00 
0.0000000e+00 0.0000000e+00 0.0000000e+00 
0.0000000e+00 0.0000000e+00 0.0000000e+00 
0.0000000e+00 0.0000000e+00 0.0000000e+00 
0.0000000e+00 0.0000000e+00 0.0000000e+00 
0.0000000e+00 0.0000000e+00 0.0000000e+00 
0.0000000e+00 0.0000000e+00 0.0000000e+00 
0.0000000e+00 0.0000000e+00 0.0000000e+00 
0.0000000e+00 0.0000000e+00 0.0000000e+00 
0.0000000e+00 0.0000000e+00 0.0000000e+00 
0.0000000e+00 0.0000000e+00 0.0000000e+00 
0.0000000e+00 0.0000000e+00 0.0000000e+00 
0.0000000e+00 0.0000000e+00 0.0000000e+00 
0.0000000e+00 0.0000000e+00 0.0000000e+00 
0.0000000e+00 0.0000000e+00 0.0000000e+00 
0.0000000e+00 0.0000000e+00 0.0000000e+00 
0.0000000e+00 0.0000000e+00 0.0000000e+00 
0.0000000e+00 0.0000000e+00 0.0000000e+00 
0.0000000e+00 0.0000000e+00 0.0000000e+00 
0.0000000e+00 0.0000000e+00 0.0000000e+00 
0.0000000e+00 0.0000000e+00 0.0000000e+00 
0.0000000e+00 0.0000000e+00 0.0000000e+00 
0.0000000e+00 0.0000000e+00 0.0000000e+00 
0.0000000e+00 0.0000000e+00 0.0000000e+00 
0.0000000e+00 0.0000000e+00 0.0000000e+00 
0.0000000e+00 0.0000000e+00 0.0000000e+00 
0.0000000e+00 0.0000000e+00 0.0000000e+00 
0.0000000e+00 0.0000000e+00 0.0000000e+00 
0.0000000e+00 0.0000000e+00 0.0000000e+00 
0.0000000e+00 0.0000000e+00 0.0000000e+00 
0.0000000e+00 0.0000000e+00 0.0000000e+00 
0.0000000e+00 0.0000000e+00 0.0000000e+00 
0.0000000e+00 0.0000000e+00 0.0000000e+00 
0.0000000e+00 0.0000000e+00 0.0000000e+00 
0.0000000e+00 0.0000000e+00 0.0000000e+00 
0.0000000e+00 0.0000000e+00 0.0000000e+00 
0.0000000e+00 0.0000000e+00 0.0000000e+00 
0.0000000e+00 0.0000000e+00 0.0000000e+00 
0.0000000e+00 0.0000000e+00 0.0000000e+00 
0.0000000e+00 0.0000000e+00 0.0000000e+00 
0.0000000e+00 0.0000000e+00 0.0000000e+00 
0.0000000e+00 0.0000000e+00 0.0000000e+00 
0.0000000e+00 0.0000000e+00 0.0000000e+00 
0.0000000e+00 0.0000000e+00 0.0000000e+00 
0.0000000e+00 0.0000000e+00 0.0000000e+00 
0.0000000e+00 0.0000000e+00 0.0000000e+00 
0.0000000e+00 0.0000000e+00 0.0000000e+00 
0.0000000e+00 0.0000000e+00 0.0000000e+00 
0.0000000e+00 0.0000000e+00 0.0000000e+00 
0.0000000e+00 0.0000000e+00 0.0000000e+00 
-5.6209221e-05 0.0000000e+00 5.3985343e-04 
0.0000000e+00 0.0000000e+00 0.0000000e+00 
-5.6209221e-05 0.0000000e+00 5.3985343e-04 
0.0000000e+00 0.0000000e+00 0.0000000e+00 
-1.1467163e-04 0.0000000e+00 1.0860560e-03 
0.0000000e+00 0.0000000e+00 0.0000000e+00 
-1.1467163e-04 0.0000000e+00 1.0860560e-03 
0.0000000e+00 0.0000000e+00 0.0000000e+00 
-1.7690628e-04 0.0000000e+00 1.6557611e-03 
0.0000000e+00 0.0000000e+00 0.0000000e+00 
-1.7690628e-04 0.0000000e+00 1.6557611e-03 
0.0000000e+00 0.0000000e+00 0.0000000e+00 
-2.5352833e-04 0.0000000e+00 2.3447568e-03 
0.0000000e+00 0.0000000e+00 0.0000000e+00 
-2.5352833e-04 0.0000000e+00 2.3447568e-03 
0.0000000e+00 0.0000000e+00 0.0000000e+00 
-3.4795182e-04 0.0000000e+00 3.1783228e-03 
0.0000000e+00 0.0000000e+00 0.0000000e+00 
0.0000000e+00 0.0000000e+00 0.0000000e+00 
-3.4795182e-04 0.0000000e+00 3.1783228e-03 
0.0000000e+00 0.0000000e+00 0.0000000e+00 
0.0000000e+00 0.0000000e+00 0.0000000e+00 
-4.5069184e-04 0.0000000e+00 4.0684744e-03 
0.0000000e+00 0.0000000e+00 0.0000000e+00 
-4.5069184e-04 0.0000000e+00 4.0684744e-03 
0.0000000e+00 0.0000000e+00 0.0000000e+00 
-5.5531274e-04 0.0000000e+00 4.9636827e-03 
0.0000000e+00 0.0000000e+00 0.0000000e+00 
-5.5531274e-04 0.0000000e+00 4.9636827e-03 
0.0000000e+00 0.0000000e+00 0.0000000e+00 
0.0000000e+00 0.0000000e+00 0.0000000e+00 
-6.6015031e-04 0.0000000e+00 5.8594733e-03 
0.0000000e+00 0.0000000e+00 0.0000000e+00 
-6.6015031e-04 0.0000000e+00 5.8594733e-03 
0.0000000e+00 0.0000000e+00 0.0000000e+00 
-7.6329069e-04 0.0000000e+00 6.7507073e-03 
0.0000000e+00 0.0000000e+00 0.0000000e+00 
-7.6329069e-04 0.0000000e+00 6.7507073e-03 
0.0000000e+00 0.0000000e+00 0.0000000e+00 
-8.6254457e-04 0.0000000e+00 7.6314186e-03 
0.0000000e+00 0.0000000e+00 0.0000000e+00 
-8.6254457e-04 0.0000000e+00 7.6314186e-03 
0.0000000e+00 0.0000000e+00 0.0000000e+00 
-9.5772972e-04 0.0000000e+00 8.5009835e-03 
0.0000000e+00 0.0000000e+00 0.0000000e+00 
-9.5772972e-04 0.0000000e+00 8.5009835e-03 
0.0000000e+00 0.0000000e+00 0.0000000e+00 
0.0000000e+00 0.0000000e+00 0.0000000e+00 
-1.0504845e-03 0.0000000e+00 9.3638247e-03 
0.0000000e+00 0.0000000e+00 0.0000000e+00 
-1.0504845e-03 0.0000000e+00 9.3638247e-03 
0.0000000e+00 0.0000000e+00 0.0000000e+00 
-1.1402816e-03 0.0000000e+00 1.0218401e-02 
0.0000000e+00 0.0000000e+00 0.0000000e+00 
-1.1402816e-03 0.0000000e+00 1.0218401e-02 
0.0000000e+00 0.0000000e+00 0.0000000e+00 
-1.2245942e-03 0.0000000e+00 1.1057435e-02 
0.0000000e+00 0.0000000e+00 0.0000000e+00 
-1.2245942e-03 0.0000000e+00 1.1057435e-02 
0.0000000e+00 0.0000000e+00 0.0000000e+00 
0.0000000e+00 0.0000000e+00 0.0000000e+00 
-1.3040195e-03 0.0000000e+00 1.1882378e-02 
-1.3040195e-03 0.0000000e+00 1.1882378e-02 
0.0000000e+00 0.0000000e+00 0.0000000e+00 
0.0000000e+00 0.0000000e+00 0.0000000e+00 
-1.3820054e-03 0.0000000e+00 1.2703126e-02 
-1.3820054e-03 0.0000000e+00 1.2703126e-02 
0.0000000e+00 0.0000000e+00 0.0000000e+00 
0.0000000e+00 0.0000000e+00 0.0000000e+00 
-1.4585117e-03 0.0000000e+00 1.3519513e-02 
-1.4585117e-03 0.0000000e+00 1.3519513e-02 
0.0000000e+00 0.0000000e+00 0.0000000e+00 
0.0000000e+00 0.0000000e+00 0.0000000e+00 
-1.5304855e-03 0.0000000e+00 1.4322404e-02 
-1.5304855e-03 0.0000000e+00 1.4322404e-02 
0.0000000e+00 0.0000000e+00 0.0000000e+00 
0.0000000e+00 0.0000000e+00 0.0000000e+00 
-1.5986102e-03 0.0000000e+00 1.5113660e-02 
0.0000000e+00 0.0000000e+00 0.0000000e+00 
-1.5986102e-03 0.0000000e+00 1.5113660e-02 
0.0000000e+00 0.0000000e+00 0.0000000e+00 
-1.6663569e-03 0.0000000e+00 1.5903763e-02 
0.0000000e+00 0.0000000e+00 0.0000000e+00 
-1.6663569e-03 0.0000000e+00 1.5903763e-02 
0.0000000e+00 0.0000000e+00 0.0000000e+00 
-1.7335339e-03 0.0000000e+00 1.6692096e-02 
0.0000000e+00 0.0000000e+00 0.0000000e+00 
-1.7335339e-03 0.0000000e+00 1.6692096e-02 
0.0000000e+00 0.0000000e+00 0.0000000e+00 
0.0000000e+00 0.0000000e+00 0.0000000e+00 
-1.7974690e-03 0.0000000e+00 1.7470375e-02 
0.0000000e+00 0.0000000e+00 0.0000000e+00 
-1.7974690e-03 0.0000000e+00 1.7470375e-02 
0.0000000e+00 0.0000000e+00 0.0000000e+00 
-1.8590156e-03 0.0000000e+00 1.8241164e-02 
0.0000000e+00 0.0000000e+00 0.0000000e+00 
-1.8590156e-03 0.0000000e+00 1.8241164e-02 
0.0000000e+00 0.0000000e+00 0.0000000e+00 
0.0000000e+00 0.0000000e+00 0.0000000e+00 
-1.9211750e-03 0.0000000e+00 1.9013879e-02 
-1.9211750e-03 0.0000000e+00 1.9013879e-02 
0.0000000e+00 0.0000000e+00 0.0000000e+00 
0.0000000e+00 0.0000000e+00 0.0000000e+00 
-1.9835032e-03 0.0000000e+00 1.9787097e-02 
-1.9835032e-03 0.0000000e+00 1.9787097e-02 
0.0000000e+00 0.0000000e+00 0.0000000e+00 
0.0000000e+00 0.0000000e+00 0.0000000e+00 
-2.0435113e-03 0.0000000e+00 2.0552917e-02 
-2.0435113e-03 0.0000000e+00 2.0552917e-02 
0.0000000e+00 0.0000000e+00 0.0000000e+00 
0.0000000e+00 0.0000000e+00 0.0000000e+00 
-2.1015086e-03 0.0000000e+00 2.1312267e-02 
-2.1015086e-03 0.0000000e+00 2.1312267e-02 
0.0000000e+00 0.0000000e+00 0.0000000e+00 
0.0000000e+00 0.0000000e+00 0.0000000e+00 
-2.1592846e-03 0.0000000e+00 2.2070904e-02 
-2.1592846e-03 0.0000000e+00 2.2070904e-02 
0.0000000e+00 0.0000000e+00 0.0000000e+00 
0.0000000e+00 0.0000000e+00 0.0000000e+00 
-2.2161941e-03 0.0000000e+00 2.2826696e-02 
0.0000000e+00 0.0000000e+00 0.0000000e+00 
-2.2161941e-03 0.0000000e+00 2.2826696e-02 
0.0000000e+00 0.0000000e+00 0.0000000e+00 
-6.1546869e-05 0.0000000e+00 9.0274876e-04 
-2.2703708e-03 0.0000000e+00 2.3573469e-02 
-6.1546869e-05 0.0000000e+00 9.0274876e-04 
-2.2703708e-03 0.0000000e+00 2.3573469e-02 
-1.1546652e-04 0.0000000e+00 1.8333242e-03 
-2.3219414e-03 0.0000000e+00 2.4311550e-02 
-1.1546652e-04 0.0000000e+00 1.8333242e-03 
-2.3219414e-03 0.0000000e+00 2.4311550e-02 
-1.6398086e-04 0.0000000e+00 2.7611494e-03 
-1.6398086e-04 0.0000000e+00 2.7611494e-03 
-2.3717245e-03 0.0000000e+00 2.5043613e-02 
-2.3717245e-03 0.0000000e+00 2.5043613e-02 
-2.0832975e-04 0.0000000e+00 3.6746009e-03 
-2.0832975e-04 0.0000000e+00 3.6746009e-03 
-2.4189448e-03 0.0000000e+00 2.5766889e-02 
-2.4189448e-03 0.0000000e+00 2.5766889e-02 
-2.4838973e-04 0.0000000e+00 4.5730612e-03 
-2.4838973e-04 0.0000000e+00 4.5730612e-03 
-2.4625645e-03 0.0000000e+00 2.6477601e-02 
-2.4625645e-03 0.0000000e+00 2.6477601e-02 
-2.8327656e-04 0.0000000e+00 5.4531322e-03 
-2.8327656e-04 0.0000000e+00 5.4531322e-03 
-2.5027531e-03 0.0000000e+00 2.7176140e-02 
-2.5027531e-03 0.0000000e+00 2.7176140e-02 
-3.1272483e-04 0.0000000e+00 6.3133052e-03 
-3.1272483e-04 0.0000000e+00 6.3133052e-03 
-2.5397153e-03 0.0000000e+00 2.7863047e-02 
-2.5397153e-03 0.0000000e+00 2.7863047e-02 
-3.3736901e-04 0.0000000e+00 7.1553824e-03 
-3.3736901e-04 0.0000000e+00 7.1553824e-03 
-2.5731583e-03 0.0000000e+00 2.8537005e-02 
-3.5775301e-04 0.0000000e+00 7.9808494e-03 
-2.5731583e-03 0.0000000e+00 2.8537005e-02 
-3.5775301e-04 0.0000000e+00 7.9808494e-03 
-3.7455096e-04 0.0000000e+00 8.7918825e-03 
-2.6029908e-03 0.0000000e+00 2.9197377e-02 
-3.7455096e-04 0.0000000e+00 8.7918825e-03 
-2.6029908e-03 0.0000000e+00 2.9197377e-02 
-3.8873125e-04 0.0000000e+00 9.5921630e-03 
-2.6290981e-03 0.0000000e+00 2.9843455e-02 
-3.8873125e-04 0.0000000e+00 9.5921630e-03 
-2.6290981e-03 0.0000000e+00 2.9843455e-02 
-4.0118739e-04 0.0000000e+00 1.0385265e-02 
-4.0118739e-04 0.0000000e+00 1.0385265e-02 
-2.6511824e-03 0.0000000e+00 3.0473768e-02 
-2.6511824e-03 0.0000000e+00 3.0473768e-02 
-4.1240874e-04 0.0000000e+00 1.1173270e-02 
-4.1240874e-04 0.0000000e+00 1.1173270e-02 
-2.6695312e-03 0.0000000e+00 3.1089115e-02 
-2.6695312e-03 0.0000000e+00 3.1089115e-02 
-4.2196096e-04 0.0000000e+00 1.1954466e-02 
-4.2196096e-04 0.0000000e+00 1.1954466e-02 
-2.6846986e-03 0.0000000e+00 3.1691450e-02 
-2.6846986e-03 0.0000000e+00 3.1691450e-02 
-4.2875617e-04 0.0000000e+00 1.2724305e-02 
-4.2875617e-04 0.0000000e+00 1.2724305e-02 
-2.6963546e-03 0.0000000e+00 3.2279126e-02 
-2.6963546e-03 0.0000000e+00 3.2279126e-02 
-4.3263762e-04 0.0000000e+00 1.3481948e-02 
-4.3263762e-04 0.0000000e+00 1.3481948e-02 
-2.7037663e-03 0.0000000e+00 3.2848626e-02 
-2.7037663e-03 0.0000000e+00 3.2848626e-02 
-4.3468664e-04 0.0000000e+00 1.4231967e-02 
-4.3468664e-04 0.0000000e+00 1.4231967e-02 
-2.7072091e-03 0.0000000e+00 3.3400672e-02 
-2.7072091e-03 0.0000000e+00 3.3400672e-02 
-4.3497084e-04 0.0000000e+00 1.4974874e-02 
-4.3497084e-04 0.0000000e+00 1.4974874e-02 
-2.7075407e-03 0.0000000e+00 3.3938717e-02 
-2.7075407e-03 0.0000000e+00 3.3938717e-02 
-4.3225983e-04 0.0000000e+00 1.5705514e-02 
-4.3225983e-04 0.0000000e+00 1.5705514e-02 
-2.7043687e-03 0.0000000e+00 3.4460588e-02 
-4.2498429e-04 0.0000000e+00 1.6416899e-02 
-2.7043687e-03 0.0000000e+00 3.4460588e-02 
-4.2498429e-04 0.0000000e+00 1.6416899e-02 
-2.6966003e-03 0.0000000e+00 3.4960512e-02 
-4.1109569e-04 0.0000000e+00 1.7097341e-02 
-2.6966003e-03 0.0000000e+00 3.4960512e-02 
-4.1109569e-04 0.0000000e+00 1.7097341e-02 
-3.9043266e-04 0.0000000e+00 1.7742499e-02 
-2.6847282e-03 0.0000000e+00 3.5440136e-02 
-3.9043266e-04 0.0000000e+00 1.7742499e-02 
-2.6847282e-03 0.0000000e+00 3.5440136e-02 
-3.6467391e-04 0.0000000e+00 1.8358976e-02 
-3.6467391e-04 0.0000000e+00 1.8358976e-02 
-2.6699917e-03 0.0000000e+00 3.5905179e-02 
-2.6699917e-03 0.0000000e+00 3.5905179e-02 
-3.3440994e-04 0.0000000e+00 1.8948158e-02 
-3.3440994e-04 0.0000000e+00 1.8948158e-02 
-2.6518046e-03 0.0000000e+00 3.6352087e-02 
-2.6518046e-03 0.0000000e+00 3.6352087e-02 
-2.9945893e-04 0.0000000e+00 1.9505919e-02 
-2.9945893e-04 0.0000000e+00 1.9505919e-02 
-2.6288114e-03 0.0000000e+00 3.6772587e-02 
-2.6288114e-03 0.0000000e+00 3.6772587e-02 
-2.6009942e-04 0.0000000e+00 2.0030531e-02 
-2.6009942e-04 0.0000000e+00 2.0030531e-02 
-2.6013422e-03 0.0000000e+00 3.7167258e-02 
-2.6013422e-03 0.0000000e+00 3.7167258e-02 
-2.1713283e-04 0.0000000e+00 2.0525170e-02 
-2.1713283e-04 0.0000000e+00 2.0525170e-02 
-2.5704126e-03 0.0000000e+00 3.7541080e-02 
-2.5704126e-03 0.0000000e+00 3.7541080e-02 
-1.7137236e-04 0.0000000e+00 2.0994273e-02 
-1.7137236e-04 0.0000000e+00 2.0994273e-02 
-2.5356018e-03 0.0000000e+00 3.7890269e-02 
-2.5356018e-03 0.0000000e+00 3.7890269e-02 
-1.2301420e-04 0.0000000e+00 2.1437399e-02 
-1.2301420e-04 0.0000000e+00 2.1437399e-02 
-2.4958360e-03 0.0000000e+00 3.8205696e-02 
-2.4958360e-03 0.0000000e+00 3.8205696e-02 
-7.1967140e-05 0.0000000e+00 2.1850602e-02 
-7.1967140e-05 0.0000000e+00 2.1850602e-02 
-2.4515496e-03 0.0000000e+00 3.8487692e-02 
-2.4515496e-03 0.0000000e+00 3.8487692e-02 
-1.8498666e-05 0.0000000e+00 2.2232997e-02 
-1.8498666e-05 0.0000000e+00 2.2232997e-02 
-2.4039194e-03 0.0000000e+00 3.8742981e-02 
-2.4039194e-03 0.0000000e+00 3.8742981e-02 
3.6926834e-05 0.0000000e+00 2.2586419e-02 
3.6926834e-05 0.0000000e+00 2.2586419e-02 
-2.3530021e-03 0.0000000e+00 3.8969678e-02 
-2.3530021e-03 0.0000000e+00 3.8969678e-02 
9.4039101e-05 0.0000000e+00 2.2910115e-02 
9.4039101e-05 0.0000000e+00 2.2910115e-02 
-2.2983600e-03 0.0000000e+00 3.9160244e-02 
-2.2983600e-03 0.0000000e+00 3.9160244e-02 
1.5261462e-04 0.0000000e+00 2.3201552e-02 
1.5261462e-04 0.0000000e+00 2.3201552e-02 
-2.2404243e-03 0.0000000e+00 3.9314209e-02 
2.1228043e-04 0.0000000e+00 2.3460352e-02 
-2.2404243e-03 0.0000000e+00 3.9314209e-02 
2.1228043e-04 0.0000000e+00 2.3460352e-02 
2.7262538e-04 0.0000000e+00 2.3687677e-02 
-2.1799906e-03 0.0000000e+00 3.9435969e-02 
2.7262538e-04 0.0000000e+00 2.3687677e-02 
-2.1799906e-03 0.0000000e+00 3.9435969e-02 
3.3327092e-04 0.0000000e+00 2.3883218e-02 
-2.1173373e-03 0.0000000e+00 3.9523804e-02 
3.3327092e-04 0.0000000e+00 2.3883218e-02 
-2.1173373e-03 0.0000000e+00 3.9523804e-02 
3.9381277e-04 0.0000000e+00 2.4045093e-02 
3.9381277e-04 0.0000000e+00 2.4045093e-02 
-2.0526030e-03 0.0000000e+00 3.9571608e-02 
-2.0526030e-03 0.0000000e+00 3.9571608e-02 
4.5380749e-04 0.0000000e+00 2.4172385e-02 
4.5380749e-04 0.0000000e+00 2.4172385e-02 
-1.9863529e-03 0.0000000e+00 3.9579234e-02 
-1.9863529e-03 0.0000000e+00 3.9579234e-02 
5.1283752e-04 0.0000000e+00 2.4265998e-02 
5.1283752e-04 0.0000000e+00 2.4265998e-02 
-1.9192335e-03 0.0000000e+00 3.9550986e-02 
-1.9192335e-03 0.0000000e+00 3.9550986e-02 
5.7045050e-04 0.0000000e+00 2.4326241e-02 
5.7045050e-04 0.0000000e+00 2.4326241e-02 
-1.8517106e-03 0.0000000e+00 3.9485198e-02 
-1.8517106e-03 0.0000000e+00 3.9485198e-02 
6.2611826e-04 0.0000000e+00 2.4352032e-02 
6.2611826e-04 0.0000000e+00 2.4352032e-02 
-1.7843777e-03 0.0000000e+00 3.9374913e-02 
-1.7843777e-03 0.0000000e+00 3.9374913e-02 
6.7921555e-04 0.0000000e+00 2.4341082e-02 
6.7921555e-04 0.0000000e+00 2.4341082e-02 
-1.7180628e-03 0.0000000e+00 3.9217823e-02 
-1.7180628e-03 0.0000000e+00 3.9217823e-02 
7.2901508e-04 0.0000000e+00 2.4291038e-02 
7.2901508e-04 0.0000000e+00 2.4291038e-02 
-1.6534570e-03 0.0000000e+00 3.9017163e-02 
-1.6534570e-03 0.0000000e+00 3.9017163e-02 
7.7493654e-04 0.0000000e+00 2.4201986e-02 
7.7493654e-04 0.0000000e+00 2.4201986e-02 
-1.5912683e-03 0.0000000e+00 3.8772862e-02 
-1.5912683e-03 0.0000000e+00 3.8772862e-02 
8.1638981e-04 0.0000000e+00 2.4073942e-02 
8.1638981e-04 0.0000000e+00 2.4073942e-02 
-1.5326120e-03 0.0000000e+00 3.8479819e-02 
-1.5326120e-03 0.0000000e+00 3.8479819e-02 
8.5249999e-04 0.0000000e+00 2.3904788e-02 
8.5249999e-04 0.0000000e+00 2.3904788e-02 
-1.4786171e-03 0.0000000e+00 3.8136046e-02 
-1.4786171e-03 0.0000000e+00 3.8136046e-02 
8.8242665e-04 0.0000000e+00 2.3693300e-02 
8.8242665e-04 0.0000000e+00 2.3693300e-02 
-1.4299229e-03 0.0000000e+00 3.7744632e-02 
-1.4299229e-03 0.0000000e+00 3.7744632e-02 
9.0561251e-04 0.0000000e+00 2.3440437e-02 
9.0561251e-04 0.0000000e+00 2.3440437e-02 
-1.3871307e-03 0.0000000e+00 3.7307397e-02 
-1.3871307e-03 0.0000000e+00 3.7307397e-02 
9.2157566e-04 0.0000000e+00 2.3147334e-02 
9.2157566e-04 0.0000000e+00 2.3147334e-02 
-1.3512731e-03 0.0000000e+00 3.6822790e-02 
-1.3512731e-03 0.0000000e+00 3.6822790e-02 
9.2967236e-04 0.0000000e+00 2.2815804e-02 
9.2967236e-04 0.0000000e+00 2.2815804e-02 
-1.3232850e-03 0.0000000e+00 3.6288475e-02 
-1.3232850e-03 0.0000000e+00 3.6288475e-02 
9.2806028e-04 0.0000000e+00 2.2364635e-02 
9.2806028e-04 0.0000000e+00 2.2364635e-02 
-1.3010490e-03 0.0000000e+00 3.5585953e-02 
-1.3010490e-03 0.0000000e+00 3.5585953e-02 
9.0957173e-04 0.0000000e+00 2.1751850e-02 
9.0957173e-04 0.0000000e+00 2.1751850e-02 
-1.2918906e-03 0.0000000e+00 3.4657941e-02 
-1.2918906e-03 0.0000000e+00 3.4657941e-02 
8.6560609e-04 0.0000000e+00 2.0930368e-02 
8.6560609e-04 0.0000000e+00 2.0930368e-02 
-1.3085219e-03 0.0000000e+00 3.3436876e-02 
-1.3085219e-03 0.0000000e+00 3.3436876e-02 
7.9521329e-04 0.0000000e+00 1.9976778e-02 
7.9521329e-04 0.0000000e+00 1.9976778e-02 
-1.3574438e-03 0.0000000e+00 3.2091604e-02 
-1.3574438e-03 0.0000000e+00 3.2091604e-02 
7.0090859e-04 0.0000000e+00 1.8941877e-02 
7.0090859e-04 0.0000000e+00 1.8941877e-02 
-1.4390313e-03 0.0000000e+00 3.0632909e-02 
-1.4390313e-03 0.0000000e+00 3.0632909e-02 
5.8740551e-04 0.0000000e+00 1.7845412e-02 
5.8740551e-04 0.0000000e+00 1.7845412e-02 
-1.5509704e-03 0.0000000e+00 2.9077542e-02 
-1.5509704e-03 0.0000000e+00 2.9077542e-02 
4.6362854e-04 0.0000000e+00 1.6717216e-02 
4.6362854e-04 0.0000000e+00 1.6717216e-02 
-1.6888697e-03 0.0000000e+00 2.7444999e-02 
-1.6888697e-03 0.0000000e+00 2.7444999e-02 
3.3685071e-04 0.0000000e+00 1.5579924e-02 
3.3685071e-04 0.0000000e+00 1.5579924e-02 
-1.8512085e-03 0.0000000e+00 2.5743676e-02 
-1.8512085e-03 0.0000000e+00 2.5743676e-02 
2.1279753e-04 0.0000000e+00 1.4450826e-02 
2.1279753e-04 0.0000000e+00 1.4450826e-02 
-2.0397983e-03 0.0000000e+00 2.3972390e-02 
-2.0397983e-03 0.0000000e+00 2.3972390e-02 
9.2212094e-05 0.0000000e+00 1.3332222e-02 
9.2212094e-05 0.0000000e+00 1.3332222e-02 
-2.2475093e-03 0.0000000e+00 2.2152389e-02 
-2.2475093e-03 0.0000000e+00 2.2152389e-02 