# vtk DataFile Version 4.0
vtk output
ASCII
DATASET UNSTRUCTURED_GRID
POINTS 824 float
-6.4148600e-05 1.0000000e-02 -4.4525366e-03 
-1.0680180e-04 1.0000000e-02 -2.8088474e-03 
3.4513260e-04 1.0000000e-02 -6.0450544e-03 
1.3803532e-03 1.0000000e-02 -7.3230534e-03 
6.5829700e-05 1.0000000e-02 -1.1736922e-03 
2.7142144e-03 1.0000000e-02 -8.2851896e-03 
5.0392030e-04 1.0000000e-02 6.5784910e-04 
4.1780764e-03 1.0000000e-02 -9.0342357e-03 
1.1628646e-03 1.0000000e-02 2.4220088e-03 
5.7070961e-03 1.0000000e-02 -9.6390187e-03 
2.0046218e-03 1.0000000e-02 4.1066196e-03 
7.2731595e-03 1.0000000e-02 -1.0140047e-02 
-6.4148600e-05 0.0000000e+00 -4.4525366e-03 
-1.0680180e-04 0.0000000e+00 -2.8088474e-03 
3.4513260e-04 0.0000000e+00 -6.0450544e-03 
1.3803532e-03 0.0000000e+00 -7.3230534e-03 
6.5829700e-05 0.0000000e+00 -1.1736922e-03 
2.9952540e-03 1.0000000e-02 5.7082181e-03 
8.8622628e-03 1.0000000e-02 -1.0562311e-02 
2.7142144e-03 0.0000000e+00 -8.2851896e-03 
5.0392030e-04 0.0000000e+00 6.5784910e-04 
4.1780764e-03 0.0000000e+00 -9.0342357e-03 
1.1628646e-03 0.0000000e+00 2.4220088e-03 
1.0466628e-02 1.0000000e-02 -1.0922252e-02 
4.1067238e-03 1.0000000e-02 7.2284501e-03 
5.7070961e-03 0.0000000e+00 -9.6390187e-03 
2.0046218e-03 0.0000000e+00 4.1066196e-03 
7.2731595e-03 0.0000000e+00 -1.0140047e-02 
1.2081579e-02 1.0000000e-02 -1.1231240e-02 
5.3166988e-03 1.0000000e-02 8.6715129e-03 
2.9952540e-03 0.0000000e+00 5.7082181e-03 
8.8622628e-03 0.0000000e+00 -1.0562311e-02 
1.3704120e-02 1.0000000e-02 -1.1497501e-02 
1.0466628e-02 0.0000000e+00 -1.0922252e-02 
4.1067238e-03 0.0000000e+00 7.2284501e-03 
6.6076374e-03 1.0000000e-02 1.0042624e-02 
1.5332244e-02 1.0000000e-02 -1.1727173e-02 
1.2081579e-02 0.0000000e+00 -1.1231240e-02 
5.3166988e-03 0.0000000e+00 8.6715129e-03 
7.9658343e-03 1.0000000e-02 1.1347144e-02 
1.3704120e-02 0.0000000e+00 -1.1497501e-02 
1.6964543e-02 1.0000000e-02 -1.1925002e-02 
6.6076374e-03 0.0000000e+00 1.0042624e-02 
9.3804686e-03 1.0000000e-02 1.2590236e-02 
1.5332244e-02 0.0000000e+00 -1.1727173e-02 
1.8600004e-02 1.0000000e-02 -1.2094716e-02 
7.9658343e-03 0.0000000e+00 1.1347144e-02 
1.6964543e-02 0.0000000e+00 -1.1925002e-02 
1.0843002e-02 1.0000000e-02 1.3776601e-02 
2.0237876e-02 1.0000000e-02 -1.2239318e-02 
9.3804686e-03 0.0000000e+00 1.2590236e-02 
1.8600004e-02 0.0000000e+00 -1.2094716e-02 
1.2346566e-02 1.0000000e-02 1.4910517e-02 
2.1877591e-02 1.0000000e-02 -1.2361246e-02 
1.0843002e-02 0.0000000e+00 1.3776601e-02 
2.0237876e-02 0.0000000e+00 -1.2239318e-02 
1.3885623e-02 1.0000000e-02 1.5995768e-02 
2.3518711e-02 1.0000000e-02 -1.2462540e-02 
1.2346566e-02 0.0000000e+00 1.4910517e-02 
2.1877591e-02 0.0000000e+00 -1.2361246e-02 
2.5160890e-02 1.0000000e-02 -1.2544903e-02 
1.5455654e-02 1.0000000e-02 1.7035707e-02 
1.3885623e-02 0.0000000e+00 1.5995768e-02 
2.3518711e-02 0.0000000e+00 -1.2462540e-02 
2.6803852e-02 1.0000000e-02 -1.2609772e-02 
1.7052912e-02 1.0000000e-02 1.8033321e-02 
2.5160890e-02 0.0000000e+00 -1.2544903e-02 
1.5455654e-02 0.0000000e+00 1.7035707e-02 
2.8447376e-02 1.0000000e-02 -1.2658389e-02 
2.6803852e-02 0.0000000e+00 -1.2609772e-02 
1.7052912e-02 0.0000000e+00 1.8033321e-02 
1.8674284e-02 1.0000000e-02 1.8991246e-02 
3.0091279e-02 1.0000000e-02 -1.2691814e-02 
2.8447376e-02 0.0000000e+00 -1.2658389e-02 
1.8674284e-02 0.0000000e+00 1.8991246e-02 
2.0317149e-02 1.0000000e-02 1.9911822e-02 
3.0091279e-02 0.0000000e+00 -1.2691814e-02 
3.1735410e-02 1.0000000e-02 -1.2710971e-02 
2.0317149e-02 0.0000000e+00 1.9911822e-02 
2.1979295e-02 1.0000000e-02 2.0797113e-02 
3.1735410e-02 0.0000000e+00 -1.2710971e-02 
3.3379643e-02 1.0000000e-02 -1.2716676e-02 
2.1979295e-02 0.0000000e+00 2.0797113e-02 
2.3658832e-02 1.0000000e-02 2.1648949e-02 
3.3379643e-02 0.0000000e+00 -1.2716676e-02 
3.5023871e-02 1.0000000e-02 -1.2709629e-02 
2.3658832e-02 0.0000000e+00 2.1648949e-02 
2.5354100e-02 1.0000000e-02 2.2469029e-02 
3.5023871e-02 0.0000000e+00 -1.2709629e-02 
3.6668001e-02 1.0000000e-02 -1.2690457e-02 
2.5354100e-02 0.0000000e+00 2.2469029e-02 
2.7063712e-02 1.0000000e-02 2.3258772e-02 
3.6668001e-02 0.0000000e+00 -1.2690457e-02 
3.8312016e-02 1.0000000e-02 -1.2663038e-02 
2.7063712e-02 0.0000000e+00 2.3258772e-02 
3.8312016e-02 0.0000000e+00 -1.2663038e-02 
2.8786417e-02 1.0000000e-02 2.4019532e-02 
3.9956032e-02 1.0000000e-02 -1.2635752e-02 
2.8786417e-02 0.0000000e+00 2.4019532e-02 
3.9956032e-02 0.0000000e+00 -1.2635752e-02 
3.0521135e-02 1.0000000e-02 2.4752486e-02 
4.1600048e-02 1.0000000e-02 -1.2608467e-02 
3.0521135e-02 0.0000000e+00 2.4752486e-02 
4.1600048e-02 0.0000000e+00 -1.2608467e-02 
3.2266919e-02 1.0000000e-02 2.5458676e-02 
4.3299814e-02 1.0000000e-02 -1.2580255e-02 
3.2266919e-02 0.0000000e+00 2.5458676e-02 
4.3299814e-02 0.0000000e+00 -1.2580255e-02 
3.4022902e-02 1.0000000e-02 2.6139111e-02 
4.5339533e-02 1.0000000e-02 -1.2546402e-02 
3.4022902e-02 0.0000000e+00 2.6139111e-02 
4.5339533e-02 0.0000000e+00 -1.2546402e-02 
3.5788340e-02 1.0000000e-02 2.6794623e-02 
4.7787196e-02 1.0000000e-02 -1.2505778e-02 
3.5788340e-02 0.0000000e+00 2.6794623e-02 
3.7562554e-02 1.0000000e-02 2.7425996e-02 
4.7787196e-02 0.0000000e+00 -1.2505778e-02 
3.7562554e-02 0.0000000e+00 2.7425996e-02 
3.9344928e-02 1.0000000e-02 2.8033950e-02 
5.0379113e-02 1.0000000e-02 -1.2462760e-02 
3.9344928e-02 0.0000000e+00 2.8033950e-02 
5.0379113e-02 0.0000000e+00 -1.2462760e-02 
4.1134916e-02 1.0000000e-02 2.8619109e-02 
5.2971029e-02 1.0000000e-02 -1.2419741e-02 
4.1134916e-02 0.0000000e+00 2.8619109e-02 
5.2971029e-02 0.0000000e+00 -1.2419741e-02 
4.2932026e-02 1.0000000e-02 2.9182016e-02 
4.2932026e-02 0.0000000e+00 2.9182016e-02 
5.5562946e-02 1.0000000e-02 -1.2376723e-02 
4.5339682e-02 1.0000000e-02 2.9899231e-02 
5.5562946e-02 0.0000000e+00 -1.2376723e-02 
4.5339682e-02 0.0000000e+00 2.9899231e-02 
5.8154863e-02 1.0000000e-02 -1.2333705e-02 
4.7758221e-02 1.0000000e-02 3.0578844e-02 
5.8154863e-02 0.0000000e+00 -1.2333705e-02 
4.7758221e-02 0.0000000e+00 3.0578844e-02 
6.0746779e-02 1.0000000e-02 -1.2290686e-02 
5.0186760e-02 1.0000000e-02 3.1221807e-02 
6.0746779e-02 0.0000000e+00 -1.2290686e-02 
5.0186760e-02 0.0000000e+00 3.1221807e-02 
6.3338696e-02 1.0000000e-02 -1.2247668e-02 
5.2624513e-02 1.0000000e-02 3.1828903e-02 
6.3338696e-02 0.0000000e+00 -1.2247668e-02 
5.2624513e-02 0.0000000e+00 3.1828903e-02 
5.5070762e-02 1.0000000e-02 3.2400804e-02 
6.5930613e-02 1.0000000e-02 -1.2204650e-02 
5.5070762e-02 0.0000000e+00 3.2400804e-02 
6.5930613e-02 0.0000000e+00 -1.2204650e-02 
5.7524847e-02 1.0000000e-02 3.2938082e-02 
6.8522529e-02 1.0000000e-02 -1.2161631e-02 
5.7524847e-02 0.0000000e+00 3.2938082e-02 
6.8522529e-02 0.0000000e+00 -1.2161631e-02 
5.9986169e-02 1.0000000e-02 3.3441170e-02 
7.1114446e-02 1.0000000e-02 -1.2118613e-02 
5.9986169e-02 0.0000000e+00 3.3441170e-02 
7.1114446e-02 0.0000000e+00 -1.2118613e-02 
6.2454163e-02 1.0000000e-02 3.3910436e-02 
6.2454163e-02 0.0000000e+00 3.3910436e-02 
7.3706362e-02 1.0000000e-02 -1.2075595e-02 
7.3706362e-02 0.0000000e+00 -1.2075595e-02 
6.4928303e-02 1.0000000e-02 3.4346139e-02 
6.4928303e-02 0.0000000e+00 3.4346139e-02 
7.6298279e-02 1.0000000e-02 -1.2032577e-02 
7.6298279e-02 0.0000000e+00 -1.2032577e-02 
6.7408092e-02 1.0000000e-02 3.4748446e-02 
6.7408092e-02 0.0000000e+00 3.4748446e-02 
7.8890196e-02 1.0000000e-02 -1.1989558e-02 
7.8890196e-02 0.0000000e+00 -1.1989558e-02 
6.9893057e-02 1.0000000e-02 3.5117436e-02 
6.9893057e-02 0.0000000e+00 3.5117436e-02 
8.1482112e-02 1.0000000e-02 -1.1946540e-02 
8.1482112e-02 0.0000000e+00 -1.1946540e-02 
7.2382742e-02 1.0000000e-02 3.5453098e-02 
7.2382742e-02 0.0000000e+00 3.5453098e-02 
8.4074029e-02 1.0000000e-02 -1.1903522e-02 
7.4876707e-02 1.0000000e-02 3.5755332e-02 
8.4074029e-02 0.0000000e+00 -1.1903522e-02 
7.4876707e-02 0.0000000e+00 3.5755332e-02 
8.6665946e-02 1.0000000e-02 -1.1860503e-02 
7.7374516e-02 1.0000000e-02 3.6023948e-02 
8.6665946e-02 0.0000000e+00 -1.1860503e-02 
7.7374516e-02 0.0000000e+00 3.6023948e-02 
8.9257862e-02 1.0000000e-02 -1.1817485e-02 
7.9875738e-02 1.0000000e-02 3.6258665e-02 
8.9257862e-02 0.0000000e+00 -1.1817485e-02 
7.9875738e-02 0.0000000e+00 3.6258665e-02 
8.2379940e-02 1.0000000e-02 3.6459105e-02 
9.1849779e-02 1.0000000e-02 -1.1774467e-02 
8.2379940e-02 0.0000000e+00 3.6459105e-02 
9.1849779e-02 0.0000000e+00 -1.1774467e-02 
8.4886681e-02 1.0000000e-02 3.6624786e-02 
9.4441696e-02 1.0000000e-02 -1.1731448e-02 
8.4886681e-02 0.0000000e+00 3.6624786e-02 
9.4441696e-02 0.0000000e+00 -1.1731448e-02 
8.7395510e-02 1.0000000e-02 3.6755108e-02 
8.7395510e-02 0.0000000e+00 3.6755108e-02 
9.7033612e-02 1.0000000e-02 -1.1688430e-02 
9.7033612e-02 0.0000000e+00 -1.1688430e-02 
8.9905951e-02 1.0000000e-02 3.6849401e-02 
8.9905951e-02 0.0000000e+00 3.6849401e-02 
9.9625529e-02 1.0000000e-02 -1.1645412e-02 
9.9625529e-02 0.0000000e+00 -1.1645412e-02 
9.2417505e-02 1.0000000e-02 3.6906832e-02 
9.2417505e-02 0.0000000e+00 3.6906832e-02 
1.0221745e-01 1.0000000e-02 -1.1602393e-02 
1.0221745e-01 0.0000000e+00 -1.1602393e-02 
9.4929640e-02 1.0000000e-02 3.6926425e-02 
9.4929640e-02 0.0000000e+00 3.6926425e-02 
1.0480936e-01 1.0000000e-02 -1.1559375e-02 
1.0480936e-01 0.0000000e+00 -1.1559375e-02 
9.7441776e-02 1.0000000e-02 3.6907077e-02 
9.7441776e-02 0.0000000e+00 3.6907077e-02 
1.0740128e-01 1.0000000e-02 -1.1516357e-02 
1.0740128e-01 0.0000000e+00 -1.1516357e-02 
9.9953281e-02 1.0000000e-02 3.6847529e-02 
9.9953281e-02 0.0000000e+00 3.6847529e-02 
1.0999320e-01 1.0000000e-02 -1.1473339e-02 
1.0246345e-01 1.0000000e-02 3.6746314e-02 
1.0999320e-01 0.0000000e+00 -1.1473339e-02 
1.0246345e-01 0.0000000e+00 3.6746314e-02 
1.0497150e-01 1.0000000e-02 3.6601738e-02 
1.1258511e-01 1.0000000e-02 -1.1430320e-02 
1.0497150e-01 0.0000000e+00 3.6601738e-02 
1.1258511e-01 0.0000000e+00 -1.1430320e-02 
1.0747666e-01 1.0000000e-02 3.6413638e-02 
1.1517703e-01 1.0000000e-02 -1.1387302e-02 
1.0747666e-01 0.0000000e+00 3.6413638e-02 
[...]
POINT_DATA 824
FIELD FieldData 2
DISPLACEMENT 3 824  float
0.0000000e+00 0.0000000e+00 0.0000000e+00 
0.0000000e+00 0.0000000e+00 0.0000000e+00 
0.0000000e+00 0.0000000e+00 0.0000000e+00 
0.0000000e+00 0.0000000e+00 0.0000000e+00 
0.0000000e+00 0.0000000e+00 0.0000000e+00 
0.0000000e+00 0.0000000e+00 0.0000000e+00 
0.0000000e+00 0.0000000e+00 0.0000000e+00 
0.0000000e+00 0.0000000e+00 0.0000000e+00 
0.0000000e+00 0.0000000e+00 0.0000000e+00 
0.0000000e+00 0.0000000e+00 0.0000000e+00 
0.0000000e+00 0.0000000e+00 0.0000000e+00 
0.0000000e+00 0.0000000e+00 0.0000000e+00 
0.0000000e+00 0.0000000e+00 0.0000000e+00 
0.0000000e+00 0.0000000e+00 0.0000000e+00 
0.0000000e+00 0.0000000e+00 0.0000000e+00 
0.0000000e+00 0.0000000e+00 0.0000000e+00 
0.0000000e+00 0.0000000e+00 0.0000000e+00 
0.0000000e+00 0.0000000e+00 0.0000000e+00 
0.0000000e+00 0.0000000e+00 0.0000000e+00 
0.0000000e+00 0.0000000e+00 0.0000000e+00 
0.0000000e+00 0.0000000e+00 0.0000000e+00 
0.0000000e+00 0.0000000e+00 0.0000000e+00 
0.0000000e+00 0.0000000e+00 0.0000000e+00 
0.0000000e+00 0.0000000e+00 0.0000000e+00 
0.0000000e+00 0.0000000e+00 0.0000000e+00 
0.0000000e+00 0.0000000e+00 0.0000000e+00 
0.0000000e+00 0.0000000e+00 0.0000000e+00 
0.0000000e+00 0.0000000e+00 0.0000000e+00 
0.0000000e+00 0.0000000e+00 0.0000000e+00 
0.0000000e+00 0.0000000e+00 0.0000000e+00 
0.0000000e+00 0.0000000e+00 0.0000000e+00 
0.0000000e+00 0.0000000e+00 0.0000000e+00 
0.0000000e+00 0.0000000e+00 0.0000000e+00 
0.0000000e+00 0.0000000e+00 0.0000000e+00 
0.0000000e+00 0.0000000e+00 0.0000000e+00 
0.0000000e+00 0.0000000e+00 0.0000000e+00 
0.0000000e+00 0.0000000e+00 0.0000000e+00 
0.0000000e+00 0.0000000e+00 0.0000000e+00 
0.0000000e+00 0.0000000e+00 0.0000000e+00 
0.0000000e+00 0.0000000e+00 0.0000000e+00 
0.0000000e+00 0.0000000e+00 0.0000000e+00 
0.0000000e+00 0.0000000e+00 0.0000000e+00 
0.0000000e+00 0.0000000e+00 0.0000000e+00 
0.0000000e+00 0.0000000e+00 0.0000000e+00 
0.0000000e+00 0.0000000e+00 0.0000000e+00 
0.0000000e+00 0.0000000e+00 0.0000000e+00 
0.0000000e+00 0.0000000e+00 0.0000000e+00 
0.0000000e+00 0.0000000e+00 0.0000000e+00 
0.0000000e+00 0.0000000e+00 0.0000000e+00 
0.0000000e+00 0.0000000e+00 0.0000000e+00 
0.0000000e+00 0.0000000e+00 0.0000000e+00 
0.0000000e+00 0.0000000e+00 0.0000000e+00 
0.0000000e+00 0.0000000e+00 0.0000000e+00 
0.0000000e+00 0.0000000e+00 0.0000000e+00 
0.0000000e+00 0.0000000e+00 0.0000000e+00 
0.0000000e+00 0.0000000e+00 0.0000000e+00 
0.0000000e+00 0.0000000e+00 0.0000000e+00 
0.0000000e+00 0.0000000e+00 0.0000000e+00 
0.0000000e+00 0.0000000e+00 0.0000000e+00 
0.0000000e+00 0.0000000e+00 0.0000000e+00 
0.0000000e+00 0.0000000e+00 0.0000000e+00 
0.0000000e+00 0.0000000e+00 0.0000000e+00 
0.0000000e+00 0.0000000e+00 0.0000000e+00 
0.0000000e+00 0.0000000e+00 0.0000000e+00 
0.0000000e+00 0.0000000e+00 0.0000000e+00 
0.0000000e+00 0.0000000e+00 0.0000000e+00 
0.0000000e+00 0.0000000e+00 0.0000000e+00 
0.0000000e+00 0.0000000e+00 0.0000000e+00 
0.0000000e+00 0.0000000e+00 0.0000000e+00 
0.0000000e+00 0.0000000e+00 0.0000000e+00 
0.0000000e+00 0.0000000e+00 0.0000000e+00 
0.0000000e+00 0.0000000e+00 0.0000000e+00 
0.0000000e+00 0.0000000e+00 0.0000000e+00 
0.0000000e+00 0.0000000e+00 0.0000000e+00 
0.0000000e+00 0.0000000e+00 0.0000000e+00 
0.0000000e+00 0.0000000e+00 0.0000000e+00 
0.0000000e+00 0.0000000e+00 0.0000000e+00 
0.0000000e+00 0.0000000e+00 0.0000000e+00 
0.0000000e+00 0.0000000e+00 0.0000000e+00 
0.0000000e+00 0.0000000e+00 0.0000000e+00 
0.0000000e+00 0.0000000e+00 0.0000000e+00 
0.0000000e+00 0.0000000e+00 0.0000000e+00 
0.0000000e+00 0.0000000e+00 0.0000000e+00 
0.0000000e+00 0.0000000e+00 0.0000000e+00 
0.0000000e+00 0.0000000e+00 0.0000000e+00 
0.0000000e+00 0.0000000e+00 0.0000000e+00 
0.0000000e+00 0.0000000e+00 0.0000000e+00 
0.0000000e+00 0.0000000e+00 0.0000000e+00 
0.0000000e+00 0.0000000e+00 0.0000000e+00 
0.0000000e+00 0.0000000e+00 0.0000000e+00 
0.0000000e+00 0.0000000e+00 0.0000000e+00 
0.0000000e+00 0.0000000e+00 0.0000000e+00 
0.0000000e+00 0.0000000e+00 0.0000000e+00 
0.0000000e+00 0.0000000e+00 0.0000000e+00 
0.0000000e+00 0.0000000e+00 0.0000000e+00 
0.0000000e+00 0.0000000e+00 0.0000000e+00 
0.0000000e+00 0.0000000e+00 0.0000000e+00 
-7.7866225e-06 0.0000000e+00 2.1335791e-04 
0.0000000e+00 0.0000000e+00 0.0000000e+00 
-7.7866225e-06 0.0000000e+00 2.1335791e-04 
0.0000000e+00 0.0000000e+00 0.0000000e+00 
-1.5597461e-05 0.0000000e+00 4.2688189e-04 
0.0000000e+00 0.0000000e+00 0.0000000e+00 
-1.5597461e-05 0.0000000e+00 4.2688189e-04 
0.0000000e+00 0.0000000e+00 0.0000000e+00 
-2.3692189e-05 0.0000000e+00 6.4777461e-04 
0.0000000e+00 0.0000000e+00 0.0000000e+00 
-2.3692189e-05 0.0000000e+00 6.4777461e-04 
0.0000000e+00 0.0000000e+00 0.0000000e+00 
-3.3411765e-05 0.0000000e+00 9.1288724e-04 
0.0000000e+00 0.0000000e+00 0.0000000e+00 
-3.3411765e-05 0.0000000e+00 9.1288724e-04 
0.0000000e+00 0.0000000e+00 0.0000000e+00 
-4.5077578e-05 0.0000000e+00 1.2310377e-03 
0.0000000e+00 0.0000000e+00 0.0000000e+00 
0.0000000e+00 0.0000000e+00 0.0000000e+00 
-4.5077578e-05 0.0000000e+00 1.2310377e-03 
0.0000000e+00 0.0000000e+00 0.0000000e+00 
0.0000000e+00 0.0000000e+00 0.0000000e+00 
-5.7435398e-05 0.0000000e+00 1.5679691e-03 
0.0000000e+00 0.0000000e+00 0.0000000e+00 
-5.7435398e-05 0.0000000e+00 1.5679691e-03 
0.0000000e+00 0.0000000e+00 0.0000000e+00 
-6.9761510e-05 0.0000000e+00 1.9046851e-03 
0.0000000e+00 0.0000000e+00 0.0000000e+00 
-6.9761510e-05 0.0000000e+00 1.9046851e-03 
0.0000000e+00 0.0000000e+00 0.0000000e+00 
0.0000000e+00 0.0000000e+00 0.0000000e+00 
-8.1992124e-05 0.0000000e+00 2.2407564e-03 
0.0000000e+00 0.0000000e+00 0.0000000e+00 
-8.1992124e-05 0.0000000e+00 2.2407564e-03 
0.0000000e+00 0.0000000e+00 0.0000000e+00 
-9.4091394e-05 0.0000000e+00 2.5759357e-03 
0.0000000e+00 0.0000000e+00 0.0000000e+00 
-9.4091394e-05 0.0000000e+00 2.5759357e-03 
0.0000000e+00 0.0000000e+00 0.0000000e+00 
-1.0606555e-04 0.0000000e+00 2.9102603e-03 
0.0000000e+00 0.0000000e+00 0.0000000e+00 
-1.0606555e-04 0.0000000e+00 2.9102603e-03 
0.0000000e+00 0.0000000e+00 0.0000000e+00 
-1.1790573e-04 0.0000000e+00 3.2436701e-03 
0.0000000e+00 0.0000000e+00 0.0000000e+00 
-1.1790573e-04 0.0000000e+00 3.2436701e-03 
0.0000000e+00 0.0000000e+00 0.0000000e+00 
0.0000000e+00 0.0000000e+00 0.0000000e+00 
-1.2956448e-04 0.0000000e+00 3.5758366e-03 
0.0000000e+00 0.0000000e+00 0.0000000e+00 
-1.2956448e-04 0.0000000e+00 3.5758366e-03 
0.0000000e+00 0.0000000e+00 0.0000000e+00 
-1.4101698e-04 0.0000000e+00 3.9065808e-03 
0.0000000e+00 0.0000000e+00 0.0000000e+00 
-1.4101698e-04 0.0000000e+00 3.9065808e-03 
0.0000000e+00 0.0000000e+00 0.0000000e+00 
-1.5228077e-04 0.0000000e+00 4.2360179e-03 
0.0000000e+00 0.0000000e+00 0.0000000e+00 
-1.5228077e-04 0.0000000e+00 4.2360179e-03 
0.0000000e+00 0.0000000e+00 0.0000000e+00 
0.0000000e+00 0.0000000e+00 0.0000000e+00 
-1.6335551e-04 0.0000000e+00 4.5641408e-03 
-1.6335551e-04 0.0000000e+00 4.5641408e-03 
0.0000000e+00 0.0000000e+00 0.0000000e+00 
0.0000000e+00 0.0000000e+00 0.0000000e+00 
-1.7419994e-04 0.0000000e+00 4.8906576e-03 
-1.7419994e-04 0.0000000e+00 4.8906576e-03 
0.0000000e+00 0.0000000e+00 0.0000000e+00 
0.0000000e+00 0.0000000e+00 0.0000000e+00 
-1.8478616e-04 0.0000000e+00 5.2153604e-03 
-1.8478616e-04 0.0000000e+00 5.2153604e-03 
0.0000000e+00 0.0000000e+00 0.0000000e+00 
0.0000000e+00 0.0000000e+00 0.0000000e+00 
-1.9512303e-04 0.0000000e+00 5.5383010e-03 
-1.9512303e-04 0.0000000e+00 5.5383010e-03 
0.0000000e+00 0.0000000e+00 0.0000000e+00 
0.0000000e+00 0.0000000e+00 0.0000000e+00 
-2.0521475e-04 0.0000000e+00 5.8595016e-03 
0.0000000e+00 0.0000000e+00 0.0000000e+00 
-2.0521475e-04 0.0000000e+00 5.8595016e-03 
0.0000000e+00 0.0000000e+00 0.0000000e+00 
-2.1503503e-04 0.0000000e+00 6.1787665e-03 
0.0000000e+00 0.0000000e+00 0.0000000e+00 
-2.1503503e-04 0.0000000e+00 6.1787665e-03 
0.0000000e+00 0.0000000e+00 0.0000000e+00 
-2.2455682e-04 0.0000000e+00 6.4958875e-03 
0.0000000e+00 0.0000000e+00 0.0000000e+00 
-2.2455682e-04 0.0000000e+00 6.4958875e-03 
0.0000000e+00 0.0000000e+00 0.0000000e+00 
0.0000000e+00 0.0000000e+00 0.0000000e+00 
-2.3378241e-04 0.0000000e+00 6.8108627e-03 
0.0000000e+00 0.0000000e+00 0.0000000e+00 
-2.3378241e-04 0.0000000e+00 6.8108627e-03 
0.0000000e+00 0.0000000e+00 0.0000000e+00 
-2.4272256e-04 0.0000000e+00 7.1237591e-03 
0.0000000e+00 0.0000000e+00 0.0000000e+00 
-2.4272256e-04 0.0000000e+00 7.1237591e-03 
0.0000000e+00 0.0000000e+00 0.0000000e+00 
0.0000000e+00 0.0000000e+00 0.0000000e+00 
-2.5136609e-04 0.0000000e+00 7.4344864e-03 
-2.5136609e-04 0.0000000e+00 7.4344864e-03 
0.0000000e+00 0.0000000e+00 0.0000000e+00 
0.0000000e+00 0.0000000e+00 0.0000000e+00 
-2.5968972e-04 0.0000000e+00 7.7428532e-03 
-2.5968972e-04 0.0000000e+00 7.7428532e-03 
0.0000000e+00 0.0000000e+00 0.0000000e+00 
0.0000000e+00 0.0000000e+00 0.0000000e+00 
-2.6768518e-04 0.0000000e+00 8.0487763e-03 
-2.6768518e-04 0.0000000e+00 8.0487763e-03 
0.0000000e+00 0.0000000e+00 0.0000000e+00 
0.0000000e+00 0.0000000e+00 0.0000000e+00 
-2.7536077e-04 0.0000000e+00 8.3523038e-03 
-2.7536077e-04 0.0000000e+00 8.3523038e-03 
0.0000000e+00 0.0000000e+00 0.0000000e+00 
0.0000000e+00 0.0000000e+00 0.0000000e+00 
-2.8271431e-04 0.0000000e+00 8.6534066e-03 
-2.8271431e-04 0.0000000e+00 8.6534066e-03 
0.0000000e+00 0.0000000e+00 0.0000000e+00 
0.0000000e+00 0.0000000e+00 0.0000000e+00 
-2.8972583e-04 0.0000000e+00 8.9519079e-03 
0.0000000e+00 0.0000000e+00 0.0000000e+00 
-2.8972583e-04 0.0000000e+00 8.9519079e-03 
0.0000000e+00 0.0000000e+00 0.0000000e+00 
-8.9098945e-07 0.0000000e+00 5.4360108e-04 
-2.9638741e-04 0.0000000e+00 9.2477186e-03 
-8.9098945e-07 0.0000000e+00 5.4360108e-04 
-2.9638741e-04 0.0000000e+00 9.2477186e-03 
1.6833532e-06 0.0000000e+00 1.1270507e-03 
-3.0271249e-04 0.0000000e+00 9.5409283e-03 
1.6833532e-06 0.0000000e+00 1.1270507e-03 
-3.0271249e-04 0.0000000e+00 9.5409283e-03 
5.8873244e-06 0.0000000e+00 1.7184642e-03 
5.8873244e-06 0.0000000e+00 1.7184642e-03 
-3.0870351e-04 0.0000000e+00 9.8315363e-03 
-3.0870351e-04 0.0000000e+00 9.8315363e-03 
1.0789290e-05 0.0000000e+00 2.3053353e-03 
1.0789290e-05 0.0000000e+00 2.3053353e-03 
-3.1433854e-04 0.0000000e+00 1.0119342e-02 
-3.1433854e-04 0.0000000e+00 1.0119342e-02 
1.6383084e-05 0.0000000e+00 2.8876558e-03 
1.6383084e-05 0.0000000e+00 2.8876558e-03 
-3.1960130e-04 0.0000000e+00 1.0404190e-02 
-3.1960130e-04 0.0000000e+00 1.0404190e-02 
2.2715861e-05 0.0000000e+00 3.4650687e-03 
2.2715861e-05 0.0000000e+00 3.4650687e-03 
-3.2449912e-04 0.0000000e+00 1.0686112e-02 
-3.2449912e-04 0.0000000e+00 1.0686112e-02 
2.9844836e-05 0.0000000e+00 4.0371132e-03 
2.9844836e-05 0.0000000e+00 4.0371132e-03 
-3.2903828e-04 0.0000000e+00 1.0965134e-02 
-3.2903828e-04 0.0000000e+00 1.0965134e-02 
3.7815967e-05 0.0000000e+00 4.6033946e-03 
3.7815967e-05 0.0000000e+00 4.6033946e-03 
-3.3320220e-04 0.0000000e+00 1.1241091e-02 
4.6675000e-05 0.0000000e+00 5.1634756e-03 
-3.3320220e-04 0.0000000e+00 1.1241091e-02 
4.6675000e-05 0.0000000e+00 5.1634756e-03 
5.6446987e-05 0.0000000e+00 5.7170525e-03 
-3.3697392e-04 0.0000000e+00 1.1513804e-02 
5.6446987e-05 0.0000000e+00 5.7170525e-03 
-3.3697392e-04 0.0000000e+00 1.1513804e-02 
6.7122327e-05 0.0000000e+00 6.2640623e-03 
-3.4036089e-04 0.0000000e+00 1.1783303e-02 
6.7122327e-05 0.0000000e+00 6.2640623e-03 
-3.4036089e-04 0.0000000e+00 1.1783303e-02 
7.8688878e-05 0.0000000e+00 6.8044582e-03 
7.8688878e-05 0.0000000e+00 6.8044582e-03 
-3.4337393e-04 0.0000000e+00 1.2049648e-02 
-3.4337393e-04 0.0000000e+00 1.2049648e-02 
9.1146333e-05 0.0000000e+00 7.3381042e-03 
9.1146333e-05 0.0000000e+00 7.3381042e-03 
-3.4600137e-04 0.0000000e+00 1.2312704e-02 
-3.4600137e-04 0.0000000e+00 1.2312704e-02 
1.0449895e-04 0.0000000e+00 7.8648101e-03 
1.0449895e-04 0.0000000e+00 7.8648101e-03 
-3.4822762e-04 0.0000000e+00 1.2572291e-02 
-3.4822762e-04 0.0000000e+00 1.2572291e-02 
1.1874021e-04 0.0000000e+00 8.3844729e-03 
1.1874021e-04 0.0000000e+00 8.3844729e-03 
-3.5006113e-04 0.0000000e+00 1.2828448e-02 
-3.5006113e-04 0.0000000e+00 1.2828448e-02 
1.3385341e-04 0.0000000e+00 8.8970542e-03 
1.3385341e-04 0.0000000e+00 8.8970542e-03 
-3.5151690e-04 0.0000000e+00 1.3081268e-02 
-3.5151690e-04 0.0000000e+00 1.3081268e-02 
1.4983120e-04 0.0000000e+00 9.4024414e-03 
1.4983120e-04 0.0000000e+00 9.4024414e-03 
-3.5258726e-04 0.0000000e+00 1.3330637e-02 
-3.5258726e-04 0.0000000e+00 1.3330637e-02 
1.6667123e-04 0.0000000e+00 9.9004639e-03 
1.6667123e-04 0.0000000e+00 9.9004639e-03 
-3.5325804e-04 0.0000000e+00 1.3576381e-02 
-3.5325804e-04 0.0000000e+00 1.3576381e-02 
1.8435955e-04 0.0000000e+00 1.0391047e-02 
1.8435955e-04 0.0000000e+00 1.0391047e-02 
-3.5353880e-04 0.0000000e+00 1.3818544e-02 
2.0287498e-04 0.0000000e+00 1.0874180e-02 
-3.5353880e-04 0.0000000e+00 1.3818544e-02 
2.0287498e-04 0.0000000e+00 1.0874180e-02 
-3.5344909e-04 0.0000000e+00 1.4057260e-02 
2.2220236e-04 0.0000000e+00 1.1349786e-02 
-3.5344909e-04 0.0000000e+00 1.4057260e-02 
2.2220236e-04 0.0000000e+00 1.1349786e-02 
2.4233145e-04 0.0000000e+00 1.1817746e-02 
-3.5298601e-04 0.0000000e+00 1.4292458e-02 
2.4233145e-04 0.0000000e+00 1.1817746e-02 
-3.5298601e-04 0.0000000e+00 1.4292458e-02 
2.6324570e-04 0.0000000e+00 1.2277981e-02 
2.6324570e-04 0.0000000e+00 1.2277981e-02 
-3.5213692e-04 0.0000000e+00 1.4523965e-02 
-3.5213692e-04 0.0000000e+00 1.4523965e-02 
2.8492391e-04 0.0000000e+00 1.2730466e-02 
2.8492391e-04 0.0000000e+00 1.2730466e-02 
-3.5091156e-04 0.0000000e+00 1.4751827e-02 
-3.5091156e-04 0.0000000e+00 1.4751827e-02 
3.0734846e-04 0.0000000e+00 1.3175124e-02 
3.0734846e-04 0.0000000e+00 1.3175124e-02 
-3.4932971e-04 0.0000000e+00 1.4976190e-02 
-3.4932971e-04 0.0000000e+00 1.4976190e-02 
3.3050453e-04 0.0000000e+00 1.3611840e-02 
3.3050453e-04 0.0000000e+00 1.3611840e-02 
-3.4738845e-04 0.0000000e+00 1.5196973e-02 
-3.4738845e-04 0.0000000e+00 1.5196973e-02 
3.5437359e-04 0.0000000e+00 1.4040537e-02 
3.5437359e-04 0.0000000e+00 1.4040537e-02 
-3.4507437e-04 0.0000000e+00 1.5413985e-02 
-3.4507437e-04 0.0000000e+00 1.5413985e-02 
3.7893475e-04 0.0000000e+00 1.4461157e-02 
3.7893475e-04 0.0000000e+00 1.4461157e-02 
-3.4239562e-04 0.0000000e+00 1.5627257e-02 
-3.4239562e-04 0.0000000e+00 1.5627257e-02 
4.0416563e-04 0.0000000e+00 1.4873654e-02 
4.0416563e-04 0.0000000e+00 1.4873654e-02 
-3.3937211e-04 0.0000000e+00 1.5836938e-02 
-3.3937211e-04 0.0000000e+00 1.5836938e-02 
4.3004228e-04 0.0000000e+00 1.5277989e-02 
4.3004228e-04 0.0000000e+00 1.5277989e-02 
-3.3600615e-04 0.0000000e+00 1.6042999e-02 
-3.3600615e-04 0.0000000e+00 1.6042999e-02 
4.5654394e-04 0.0000000e+00 1.5674090e-02 
4.5654394e-04 0.0000000e+00 1.5674090e-02 
-3.3228849e-04 0.0000000e+00 1.6245284e-02 
-3.3228849e-04 0.0000000e+00 1.6245284e-02 
4.8365098e-04 0.0000000e+00 1.6061854e-02 
4.8365098e-04 0.0000000e+00 1.6061854e-02 
-3.2822032e-04 0.0000000e+00 1.6443745e-02 
-3.2822032e-04 0.0000000e+00 1.6443745e-02 
5.1133722e-04 0.0000000e+00 1.6441252e-02 
5.1133722e-04 0.0000000e+00 1.6441252e-02 
-3.2381056e-04 0.0000000e+00 1.6638419e-02 
-3.2381056e-04 0.0000000e+00 1.6638419e-02 
5.3957158e-04 0.0000000e+00 1.6812328e-02 
5.3957158e-04 0.0000000e+00 1.6812328e-02 
-3.1906406e-04 0.0000000e+00 1.6829296e-02 
5.6832953e-04 0.0000000e+00 1.7175037e-02 
-3.1906406e-04 0.0000000e+00 1.6829296e-02 
5.6832953e-04 0.0000000e+00 1.7175037e-02 
5.9759142e-04 0.0000000e+00 1.7529245e-02 
-3.1398147e-04 0.0000000e+00 1.7016317e-02 
5.9759142e-04 0.0000000e+00 1.7529245e-02 
-3.1398147e-04 0.0000000e+00 1.7016317e-02 
6.2733010e-04 0.0000000e+00 1.7874917e-02 
-3.0855847e-04 0.0000000e+00 1.7199361e-02 
6.2733010e-04 0.0000000e+00 1.7874917e-02 
-3.0855847e-04 0.0000000e+00 1.7199361e-02 
6.5751151e-04 0.0000000e+00 1.8212156e-02 
6.5751151e-04 0.0000000e+00 1.8212156e-02 
-3.0278844e-04 0.0000000e+00 1.7378280e-02 
-3.0278844e-04 0.0000000e+00 1.7378280e-02 
6.8810758e-04 0.0000000e+00 1.8540964e-02 
6.8810758e-04 0.0000000e+00 1.8540964e-02 
-2.9667322e-04 0.0000000e+00 1.7553010e-02 
-2.9667322e-04 0.0000000e+00 1.7553010e-02 
7.1909729e-04 0.0000000e+00 1.8861196e-02 
7.1909729e-04 0.0000000e+00 1.8861196e-02 
-2.9021977e-04 0.0000000e+00 1.7723558e-02 
-2.9021977e-04 0.0000000e+00 1.7723558e-02 
7.5045300e-04 0.0000000e+00 1.9172803e-02 
7.5045300e-04 0.0000000e+00 1.9172803e-02 
-2.8342378e-04 0.0000000e+00 1.7889780e-02 
-2.8342378e-04 0.0000000e+00 1.7889780e-02 
7.8214027e-04 0.0000000e+00 1.9475912e-02 
7.8214027e-04 0.0000000e+00 1.9475912e-02 
-2.7627308e-04 0.0000000e+00 1.8051423e-02 
-2.7627308e-04 0.0000000e+00 1.8051423e-02 
8.1412997e-04 0.0000000e+00 1.9770554e-02 
8.1412997e-04 0.0000000e+00 1.9770554e-02 
-2.6876676e-04 0.0000000e+00 1.8208366e-02 
-2.6876676e-04 0.0000000e+00 1.8208366e-02 
8.4639836e-04 0.0000000e+00 2.0056600e-02 
8.4639836e-04 0.0000000e+00 2.0056600e-02 
-2.6091336e-04 0.0000000e+00 1.8360610e-02 
-2.6091336e-04 0.0000000e+00 1.8360610e-02 
8.7891667e-04 0.0000000e+00 2.0334026e-02 
8.7891667e-04 0.0000000e+00 2.0334026e-02 
-2.5271080e-04 0.0000000e+00 1.8508004e-02 
-2.5271080e-04 0.0000000e+00 1.8508004e-02 
9.1165123e-04 0.0000000e+00 2.0602983e-02 
9.1165123e-04 0.0000000e+00 2.0602983e-02 
-2.4414813e-04 0.0000000e+00 1.8650260e-02 
-2.4414813e-04 0.0000000e+00 1.8650260e-02 
9.4457279e-04 0.0000000e+00 2.0863560e-02 
9.4457279e-04 0.0000000e+00 2.0863560e-02 
-2.3522485e-04 0.0000000e+00 1.8787222e-02 
-2.3522485e-04 0.0000000e+00 1.8787222e-02 
9.7765500e-04 0.0000000e+00 2.1115706e-02 
9.7765500e-04 0.0000000e+00 2.1115706e-02 
-2.2594868e-04 0.0000000e+00 1.8918843e-02 
-2.2594868e-04 0.0000000e+00 1.8918843e-02 
1.0108689e-03 0.0000000e+00 2.1359426e-02 
1.0108689e-03 0.0000000e+00 2.1359426e-02 
-2.1632117e-04 0.0000000e+00 1.9044978e-02 
-2.1632117e-04 0.0000000e+00 1.9044978e-02 
1.0441842e-03 0.0000000e+00 2.1594862e-02 
1.0441842e-03 0.0000000e+00 2.1594862e-02 
-2.0633963e-04 0.0000000e+00 1.9165390e-02 
-2.0633963e-04 0.0000000e+00 1.9165390e-02 
1.0774111e-03 0.0000000e+00 2.1821036e-02 
1.0774111e-03 0.0000000e+00 2.1821036e-02 
-1.9597840e-04 0.0000000e+00 1.9280299e-02 
-1.9597840e-04 0.0000000e+00 1.9280299e-02 
1.1173459e-03 0.0000000e+00 2.2081719e-02 
1.1173459e-03 0.0000000e+00 2.2081719e-02 
-1.8309956e-04 0.0000000e+00 1.9410428e-02 
-1.8309956e-04 0.0000000e+00 1.9410428e-02 
1.1652980e-03 0.0000000e+00 2.2379213e-02 
1.1652980e-03 0.0000000e+00 2.2379213e-02 
-1.6702659e-04 0.0000000e+00 1.9555269e-02 
-1.6702659e-04 0.0000000e+00 1.9555269e-02 
1.2227877e-03 0.0000000e+00 2.2714679e-02 
1.2227877e-03 0.0000000e+00 2.2714679e-02 
-1.4709539e-04 0.0000000e+00 1.9710973e-02 
-1.4709539e-04 0.0000000e+00 1.9710973e-02 
1.2831774e-03 0.0000000e+00 2.3042914e-02 
1.2831774e-03 0.0000000e+00 2.3042914e-02 
-1.2629892e-04 0.0000000e+00 1.9848499e-02 
-1.2629892e-04 0.0000000e+00 1.9848499e-02 
1.3432249e-03 0.0000000e+00 2.3344880e-02 
1.3432249e-03 0.0000000e+00 2.3344880e-02 
-1.0468596e-04 0.0000000e+00 1.9967247e-02 
-1.0468596e-04 0.0000000e+00 1.9967247e-02 
1.4027822e-03 0.0000000e+00 2.3620615e-02 
1.4027822e-03 0.0000000e+00 2.3620615e-02 
-8.2319306e-05 0.0000000e+00 2.0066825e-02 
-8.2319306e-05 0.0000000e+00 2.0066825e-02 
1.4617129e-03 0.0000000e+00 2.3870546e-02 
1.4617129e-03 0.0000000e+00 2.3870546e-02 
-5.9273162e-05 0.0000000e+00 2.0147035e-02 
-5.9273162e-05 0.0000000e+00 2.0147035e-02 
1.5198755e-03 0.0000000e+00 2.4094730e-02 
1.5198755e-03 0.0000000e+00 2.4094730e-02 
-3.5620237e-05 0.0000000e+00 2.0207495e-02 
-3.5620237e-05 0.0000000e+00 2.0207495e-02 
1.5771190e-03 0.0000000e+00 2.4292949e-02 
1.5771190e-03 0.0000000e+00 2.4292949e-02 
-1.1433292e-05 0.0000000e+00 2.0247713e-02 
-1.1433292e-05 0.0000000e+00 2.0247713e-02 
1.6332887e-03 0.0000000e+00 2.4464989e-02 
1.6332887e-03 0.0000000e+00 2.4464989e-02 
1.3204427e-05 0.0000000e+00 2.0267392e-02 
1.3204427e-05 0.0000000e+00 2.0267392e-02 
1.6882285e-03 0.0000000e+00 2.4610662e-02 