# vtk DataFile Version 4.0
vtk output
ASCII
DATASET UNSTRUCTURED_GRID
POINTS 824 float
-6.4148600e-05 1.0000000e-02 -4.4525366e-03 
-1.0680180e-04 1.0000000e-02 -2.8088474e-03 
3.4513260e-04 1.0000000e-02 -6.0450544e-03 
1.3803532e-03 1.0000000e-02 -7.3230534e-03 
6.5829700e-05 1.0000000e-02 -1.1736922e-03 
2.7142144e-03 1.0000000e-02 -8.2851896e-03 
5.0392030e-04 1.0000000e-02 6.5784910e-04 
4.1780764e-03 1.0000000e-02 -9.0342357e-03 
1.1628646e-03 1.0000000e-02 2.4220088e-03 
5.7070961e-03 1.0000000e-02 -9.6390187e-03 
2.0046218e-03 1.0000000e-02 4.1066196e-03 
7.2731595e-03 1.0000000e-02 -1.0140047e-02 
-6.4148600e-05 0.0000000e+00 -4.4525366e-03 
-1.0680180e-04 0.0000000e+00 -2.8088474e-03 
3.4513260e-04 0.0000000e+00 -6.0450544e-03 
1.3803532e-03 0.0000000e+00 -7.3230534e-03 
6.5829700e-05 0.0000000e+00 -1.1736922e-03 
2.9952540e-03 1.0000000e-02 5.7082181e-03 
8.8622628e-03 1.0000000e-02 -1.0562311e-02 
2.7142144e-03 0.0000000e+00 -8.2851896e-03 
5.0392030e-04 0.0000000e+00 6.5784910e-04 
4.1780764e-03 0.0000000e+00 -9.0342357e-03 
1.1628646e-03 0.0000000e+00 2.4220088e-03 
1.0466628e-02 1.0000000e-02 -1.0922252e-02 
4.1067238e-03 1.0000000e-02 7.2284501e-03 
5.7070961e-03 0.0000000e+00 -9.6390187e-03 
2.0046218e-03 0.0000000e+00 4.1066196e-03 
7.2731595e-03 0.0000000e+00 -1.0140047e-02 
1.2081579e-02 1.0000000e-02 -1.1231240e-02 
5.3166988e-03 1.0000000e-02 8.6715129e-03 
2.9952540e-03 0.0000000e+00 5.7082181e-03 
8.8622628e-03 0.0000000e+00 -1.0562311e-02 
1.3704120e-02 1.0000000e-02 -1.1497501e-02 
1.0466628e-02 0.0000000e+00 -1.0922252e-02 
4.1067238e-03 0.0000000e+00 7.2284501e-03 
6.6076374e-03 1.0000000e-02 1.0042624e-02 
1.5332244e-02 1.0000000e-02 -1.1727173e-02 
1.2081579e-02 0.0000000e+00 -1.1231240e-02 
5.3166988e-03 0.0000000e+00 8.6715129e-03 
7.9658343e-03 1.0000000e-02 1.1347144e-02 
1.3704120e-02 0.0000000e+00 -1.1497501e-02 
1.6964543e-02 1.0000000e-02 -1.1925002e-02 
6.6076374e-03 0.0000000e+00 1.0042624e-02 
9.3804686e-03 1.0000000e-02 1.2590236e-02 
1.5332244e-02 0.0000000e+00 -1.1727173e-02 
1.8600004e-02 1.0000000e-02 -1.2094716e-02 
7.9658343e-03 0.0000000e+00 1.1347144e-02 
1.6964543e-02 0.0000000e+00 -1.1925002e-02 
1.0843002e-02 1.0000000e-02 1.3776601e-02 
2.0237876e-02 1.0000000e-02 -1.2239318e-02 
9.3804686e-03 0.0000000e+00 1.2590236e-02 
1.8600004e-02 0.0000000e+00 -1.2094716e-02 
1.2346566e-02 1.0000000e-02 1.4910517e-02 
2.1877591e-02 1.0000000e-02 -1.2361246e-02 
1.0843002e-02 0.0000000e+00 1.3776601e-02 
2.0237876e-02 0.0000000e+00 -1.2239318e-02 
1.3885623e-02 1.0000000e-02 1.5995768e-02 
2.3518711e-02 1.0000000e-02 -1.2462540e-02 
1.2346566e-02 0.0000000e+00 1.4910517e-02 
2.1877591e-02 0.0000000e+00 -1.2361246e-02 
2.5160890e-02 1.0000000e-02 -1.2544903e-02 
1.5455654e-02 1.0000000e-02 1.7035707e-02 
1.3885623e-02 0.0000000e+00 1.5995768e-02 
2.3518711e-02 0.0000000e+00 -1.2462540e-02 
2.6803852e-02 1.0000000e-02 -1.2609772e-02 
1.7052912e-02 1.0000000e-02 1.8033321e-02 
2.5160890e-02 0.0000000e+00 -1.2544903e-02 
1.5455654e-02 0.0000000e+00 1.7035707e-02 
2.8447376e-02 1.0000000e-02 -1.2658389e-02 
2.6803852e-02 0.0000000e+00 -1.2609772e-02 
1.7052912e-02 0.0000000e+00 1.8033321e-02 
1.8674284e-02 1.0000000e-02 1.8991246e-02 
3.0091279e-02 1.0000000e-02 -1.2691814e-02 
2.8447376e-02 0.0000000e+00 -1.2658389e-02 
1.8674284e-02 0.0000000e+00 1.8991246e-02 
2.0317149e-02 1.0000000e-02 1.9911822e-02 
3.0091279e-02 0.0000000e+00 -1.2691814e-02 
3.1735410e-02 1.0000000e-02 -1.2710971e-02 
2.0317149e-02 0.0000000e+00 1.9911822e-02 
2.1979295e-02 1.0000000e-02 2.0797113e-02 
3.1735410e-02 0.0000000e+00 -1.2710971e-02 
3.3379643e-02 1.0000000e-02 -1.2716676e-02 
2.1979295e-02 0.0000000e+00 2.0797113e-02 
2.3658832e-02 1.0000000e-02 2.1648949e-02 
3.3379643e-02 0.0000000e+00 -1.2716676e-02 
3.5023871e-02 1.0000000e-02 -1.2709629e-02 
2.3658832e-02 0.0000000e+00 2.1648949e-02 
2.5354100e-02 1.0000000e-02 2.2469029e-02 
3.5023871e-02 0.0000000e+00 -1.2709629e-02 
3.6668001e-02 1.0000000e-02 -1.2690457e-02 
2.5354100e-02 0.0000000e+00 2.2469029e-02 
2.7063712e-02 1.0000000e-02 2.3258772e-02 
3.6668001e-02 0.0000000e+00 -1.2690457e-02 
3.8312016e-02 1.0000000e-02 -1.2663038e-02 
2.7063712e-02 0.0000000e+00 2.3258772e-02 
3.8312016e-02 0.0000000e+00 -1.2663038e-02 
2.8786417e-02 1.0000000e-02 2.4019532e-02 
3.9956032e-02 1.0000000e-02 -1.2635752e-02 
2.8786417e-02 0.0000000e+00 2.4019532e-02 
3.9956032e-02 0.0000000e+00 -1.2635752e-02 
3.0521135e-02 1.0000000e-02 2.4752486e-02 
4.1600048e-02 1.0000000e-02 -1.2608467e-02 
3.0521135e-02 0.0000000e+00 2.4752486e-02 
4.1600048e-02 0.0000000e+00 -1.2608467e-02 
3.2266919e-02 1.0000000e-02 2.5458676e-02 
4.3299814e-02 1.0000000e-02 -1.2580255e-02 
3.2266919e-02 0.0000000e+00 2.5458676e-02 
4.3299814e-02 0.0000000e+00 -1.2580255e-02 
3.4022902e-02 1.0000000e-02 2.6139111e-02 
4.5339533e-02 1.0000000e-02 -1.2546402e-02 
3.4022902e-02 0.0000000e+00 2.6139111e-02 
4.5339533e-02 0.0000000e+00 -1.2546402e-02 
3.5788340e-02 1.0000000e-02 2.6794623e-02 
4.7787196e-02 1.0000000e-02 -1.2505778e-02 
3.5788340e-02 0.0000000e+00 2.6794623e-02 
3.7562554e-02 1.0000000e-02 2.7425996e-02 
4.7787196e-02 0.0000000e+00 -1.2505778e-02 
3.7562554e-02 0.0000000e+00 2.7425996e-02 
3.9344928e-02 1.0000000e-02 2.8033950e-02 
5.0379113e-02 1.0000000e-02 -1.2462760e-02 
3.9344928e-02 0.0000000e+00 2.8033950e-02 
5.0379113e-02 0.0000000e+00 -1.2462760e-02 
4.1134916e-02 1.0000000e-02 2.8619109e-02 
5.2971029e-02 1.0000000e-02 -1.2419741e-02 
4.1134916e-02 0.0000000e+00 2.8619109e-02 
5.2971029e-02 0.0000000e+00 -1.2419741e-02 
4.2932026e-02 1.0000000e-02 2.9182016e-02 
4.2932026e-02 0.0000000e+00 2.9182016e-02 
5.5562946e-02 1.0000000e-02 -1.2376723e-02 
4.5339682e-02 1.0000000e-02 2.9899231e-02 
5.5562946e-02 0.0000000e+00 -1.2376723e-02 
4.5339682e-02 0.0000000e+00 2.9899231e-02 
5.8154863e-02 1.0000000e-02 -1.2333705e-02 
4.7758221e-02 1.0000000e-02 3.0578844e-02 
5.8154863e-02 0.0000000e+00 -1.2333705e-02 
4.7758221e-02 0.0000000e+00 3.0578844e-02 
6.0746779e-02 1.0000000e-02 -1.2290686e-02 
5.0186760e-02 1.0000000e-02 3.1221807e-02 
6.0746779e-02 0.0000000e+00 -1.2290686e-02 
5.0186760e-02 0.0000000e+00 3.1221807e-02 
6.3338696e-02 1.0000000e-02 -1.2247668e-02 
5.2624513e-02 1.0000000e-02 3.1828903e-02 
6.3338696e-02 0.0000000e+00 -1.2247668e-02 
5.2624513e-02 0.0000000e+00 3.1828903e-02 
5.5070762e-02 1.0000000e-02 3.2400804e-02 
6.5930613e-02 1.0000000e-02 -1.2204650e-02 
5.5070762e-02 0.0000000e+00 3.2400804e-02 
6.5930613e-02 0.0000000e+00 -1.2204650e-02 
5.7524847e-02 1.0000000e-02 3.2938082e-02 
6.8522529e-02 1.0000000e-02 -1.2161631e-02 
5.7524847e-02 0.0000000e+00 3.2938082e-02 
6.8522529e-02 0.0000000e+00 -1.2161631e-02 
5.9986169e-02 1.0000000e-02 3.3441170e-02 
7.1114446e-02 1.0000000e-02 -1.2118613e-02 
5.9986169e-02 0.0000000e+00 3.3441170e-02 
7.1114446e-02 0.0000000e+00 -1.2118613e-02 
6.2454163e-02 1.0000000e-02 3.3910436e-02 
6.2454163e-02 0.0000000e+00 3.3910436e-02 
7.3706362e-02 1.0000000e-02 -1.2075595e-02 
7.3706362e-02 0.0000000e+00 -1.2075595e-02 
6.4928303e-02 1.0000000e-02 3.4346139e-02 
6.4928303e-02 0.0000000e+00 3.4346139e-02 
7.6298279e-02 1.0000000e-02 -1.2032577e-02 
7.6298279e-02 0.0000000e+00 -1.2032577e-02 
6.7408092e-02 1.0000000e-02 3.4748446e-02 
6.7408092e-02 0.0000000e+00 3.4748446e-02 
7.8890196e-02 1.0000000e-02 -1.1989558e-02 
7.8890196e-02 0.0000000e+00 -1.1989558e-02 
6.9893057e-02 1.0000000e-02 3.5117436e-02 
6.9893057e-02 0.0000000e+00 3.5117436e-02 
8.1482112e-02 1.0000000e-02 -1.1946540e-02 
8.1482112e-02 0.0000000e+00 -1.1946540e-02 
7.2382742e-02 1.0000000e-02 3.5453098e-02 
7.2382742e-02 0.0000000e+00 3.5453098e-02 
8.4074029e-02 1.0000000e-02 -1.1903522e-02 
7.4876707e-02 1.0000000e-02 3.5755332e-02 
8.4074029e-02 0.0000000e+00 -1.1903522e-02 
7.4876707e-02 0.0000000e+00 3.5755332e-02 
8.6665946e-02 1.0000000e-02 -1.1860503e-02 
7.7374516e-02 1.0000000e-02 3.6023948e-02 
8.6665946e-02 0.0000000e+00 -1.1860503e-02 
7.7374516e-02 0.0000000e+00 3.6023948e-02 
8.9257862e-02 1.0000000e-02 -1.1817485e-02 
7.9875738e-02 1.0000000e-02 3.6258665e-02 
8.9257862e-02 0.0000000e+00 -1.1817485e-02 
7.9875738e-02 0.0000000e+00 3.6258665e-02 
8.2379940e-02 1.0000000e-02 3.6459105e-02 
9.1849779e-02 1.0000000e-02 -1.1774467e-02 
8.2379940e-02 0.0000000e+00 3.6459105e-02 
9.1849779e-02 0.0000000e+00 -1.1774467e-02 
8.4886681e-02 1.0000000e-02 3.6624786e-02 
9.4441696e-02 1.0000000e-02 -1.1731448e-02 
8.4886681e-02 0.0000000e+00 3.6624786e-02 
9.4441696e-02 0.0000000e+00 -1.1731448e-02 
8.7395510e-02 1.0000000e-02 3.6755108e-02 
8.7395510e-02 0.0000000e+00 3.6755108e-02 
9.7033612e-02 1.0000000e-02 -1.1688430e-02 
9.7033612e-02 0.0000000e+00 -1.1688430e-02 
8.9905951e-02 1.0000000e-02 3.6849401e-02 
8.9905951e-02 0.0000000e+00 3.6849401e-02 
9.9625529e-02 1.0000000e-02 -1.1645412e-02 
9.9625529e-02 0.0000000e+00 -1.1645412e-02 
9.2417505e-02 1.0000000e-02 3.6906832e-02 
9.2417505e-02 0.0000000e+00 3.6906832e-02 
1.0221745e-01 1.0000000e-02 -1.1602393e-02 
1.0221745e-01 0.0000000e+00 -1.1602393e-02 
9.4929640e-02 1.0000000e-02 3.6926425e-02 
9.4929640e-02 0.0000000e+00 3.6926425e-02 
1.0480936e-01 1.0000000e-02 -1.1559375e-02 
1.0480936e-01 0.0000000e+00 -1.1559375e-02 
9.7441776e-02 1.0000000e-02 3.6907077e-02 
9.7441776e-02 0.0000000e+00 3.6907077e-02 
1.0740128e-01 1.0000000e-02 -1.1516357e-02 
1.0740128e-01 0.0000000e+00 -1.1516357e-02 
9.9953281e-02 1.0000000e-02 3.6847529e-02 
9.9953281e-02 0.0000000e+00 3.6847529e-02 
1.0999320e-01 1.0000000e-02 -1.1473339e-02 
1.0246345e-01 1.0000000e-02 3.6746314e-02 
1.0999320e-01 0.0000000e+00 -1.1473339e-02 
1.0246345e-01 0.0000000e+00 3.6746314e-02 
1.0497150e-01 1.0000000e-02 3.6601738e-02 
1.1258511e-01 1.0000000e-02 -1.1430320e-02 
1.0497150e-01 0.0000000e+00 3.6601738e-02 
1.1258511e-01 0.0000000e+00 -1.1430320e-02 
1.0747666e-01 1.0000000e-02 3.6413638e-02 
1.1517703e-01 1.0000000e-02 -1.1387302e-02 
1.0747666e-01 0.0000000e+00 3.6413638e-02 
[...]
POINT_DATA 824
FIELD FieldData 2
DISPLACEMENT 3 824  float
0.0000000e+00 0.0000000e+00 0.0000000e+00 
0.0000000e+00 0.0000000e+00 0.0000000e+00 
0.0000000e+00 0.0000000e+00 0.0000000e+00 
0.0000000e+00 0.0000000e+00 0.0000000e+00 
0.0000000e+00 0.0000000e+00 0.0000000e+00 
0.0000000e+00 0.0000000e+00 0.0000000e+00 
0.0000000e+00 0.0000000e+00 0.0000000e+00 
0.0000000e+00 0.0000000e+00 0.0000000e+00 
0.0000000e+00 0.0000000e+00 0.0000000e+00 
0.0000000e+00 0.0000000e+00 0.0000000e+00 
0.0000000e+00 0.0000000e+00 0.0000000e+00 
0.0000000e+00 0.0000000e+00 0.0000000e+00 
0.0000000e+00 0.0000000e+00 0.0000000e+00 
0.0000000e+00 0.0000000e+00 0.0000000e+00 
0.0000000e+00 0.0000000e+00 0.0000000e+00 
0.0000000e+00 0.0000000e+00 0.0000000e+00 
0.0000000e+00 0.0000000e+00 0.0000000e+00 
0.0000000e+00 0.0000000e+00 0.0000000e+00 
0.0000000e+00 0.0000000e+00 0.0000000e+00 
0.0000000e+00 0.0000000e+00 0.0000000e+00 
0.0000000e+00 0.0000000e+00 0.0000000e+00 
0.0000000e+00 0.0000000e+00 0.0000000e+00 
0.0000000e+00 0.0000000e+00 0.0000000e+00 
0.0000000e+00 0.0000000e+00 0.0000000e+00 
0.0000000e+00 0.0000000e+00 0.0000000e+00 
0.0000000e+00 0.0000000e+00 0.0000000e+00 
0.0000000e+00 0.0000000e+00 0.0000000e+00 
0.0000000e+00 0.0000000e+00 0.0000000e+00 
0.0000000e+00 0.0000000e+00 0.0000000e+00 
0.0000000e+00 0.0000000e+00 0.0000000e+00 
0.0000000e+00 0.0000000e+00 0.0000000e+00 
0.0000000e+00 0.0000000e+00 0.0000000e+00 
0.0000000e+00 0.0000000e+00 0.0000000e+00 
0.0000000e+00 0.0000000e+00 0.0000000e+00 
0.0000000e+00 0.0000000e+00 0.0000000e+00 
0.0000000e+00 0.0000000e+00 0.0000000e+00 
0.0000000e+00 0.0000000e+00 0.0000000e+00 
0.0000000e+00 0.0000000e+00 0.0000000e+00 
0.0000000e+00 0.0000000e+00 0.0000000e+00 
0.0000000e+00 0.0000000e+00 0.0000000e+00 
0.0000000e+00 0.0000000e+00 0.0000000e+00 
0.0000000e+00 0.0000000e+00 0.0000000e+00 
0.0000000e+00 0.0000000e+00 0.0000000e+00 
0.0000000e+00 0.0000000e+00 0.0000000e+00 
0.0000000e+00 0.0000000e+00 0.0000000e+00 
0.0000000e+00 0.0000000e+00 0.0000000e+00 
0.0000000e+00 0.0000000e+00 0.0000000e+00 
0.0000000e+00 0.0000000e+00 0.0000000e+00 
0.0000000e+00 0.0000000e+00 0.0000000e+00 
0.0000000e+00 0.0000000e+00 0.0000000e+00 
0.0000000e+00 0.0000000e+00 0.0000000e+00 
0.0000000e+00 0.0000000e+00 0.0000000e+00 
0.0000000e+00 0.0000000e+00 0.0000000e+00 
0.0000000e+00 0.0000000e+00 0.0000000e+00 
0.0000000e+00 0.0000000e+00 0.0000000e+00 
0.0000000e+00 0.0000000e+00 0.0000000e+00 
0.0000000e+00 0.0000000e+00 0.0000000e+00 
0.0000000e+00 0.0000000e+00 0.0000000e+00 
0.0000000e+00 0.0000000e+00 0.0000000e+00 
0.0000000e+00 0.0000000e+00 0.0000000e+00 
0.0000000e+00 0.0000000e+00 0.0000000e+00 
0.0000000e+00 0.0000000e+00 0.0000000e+00 
0.0000000e+00 0.0000000e+00 0.0000000e+00 
0.0000000e+00 0.0000000e+00 0.0000000e+00 
0.0000000e+00 0.0000000e+00 0.0000000e+00 
0.0000000e+00 0.0000000e+00 0.0000000e+00 
0.0000000e+00 0.0000000e+00 0.0000000e+00 
0.0000000e+00 0.0000000e+00 0.0000000e+00 
0.0000000e+00 0.0000000e+00 0.0000000e+00 
0.0000000e+00 0.0000000e+00 0.0000000e+00 
0.0000000e+00 0.0000000e+00 0.0000000e+00 
0.0000000e+00 0.0000000e+00 0.0000000e+00 
0.0000000e+00 0.0000000e+00 0.0000000e+00 
0.0000000e+00 0.0000000e+00 0.0000000e+00 
0.0000000e+00 0.0000000e+00 0.0000000e+00 
0.0000000e+00 0.0000000e+00 0.0000000e+00 
0.0000000e+00 0.0000000e+00 0.0000000e+00 
0.0000000e+00 0.0000000e+00 0.0000000e+00 
0.0000000e+00 0.0000000e+00 0.0000000e+00 
0.0000000e+00 0.0000000e+00 0.0000000e+00 
0.0000000e+00 0.0000000e+00 0.0000000e+00 
0.0000000e+00 0.0000000e+00 0.0000000e+00 
0.0000000e+00 0.0000000e+00 0.0000000e+00 
0.0000000e+00 0.0000000e+00 0.0000000e+00 
0.0000000e+00 0.0000000e+00 0.0000000e+00 
0.0000000e+00 0.0000000e+00 0.0000000e+00 
0.0000000e+00 0.0000000e+00 0.0000000e+00 
0.0000000e+00 0.0000000e+00 0.0000000e+00 
0.0000000e+00 0.0000000e+00 0.0000000e+00 
0.0000000e+00 0.0000000e+00 0.0000000e+00 
0.0000000e+00 0.0000000e+00 0.0000000e+00 
0.0000000e+00 0.0000000e+00 0.0000000e+00 
0.0000000e+00 0.0000000e+00 0.0000000e+00 
0.0000000e+00 0.0000000e+00 0.0000000e+00 
0.0000000e+00 0.0000000e+00 0.0000000e+00 
0.0000000e+00 0.0000000e+00 0.0000000e+00 
0.0000000e+00 0.0000000e+00 0.0000000e+00 
-3.2343931e-05 0.0000000e+00 3.7244310e-04 
0.0000000e+00 0.0000000e+00 0.0000000e+00 
-3.2343931e-05 0.0000000e+00 3.7244310e-04 
0.0000000e+00 0.0000000e+00 0.0000000e+00 
-6.4470842e-05 0.0000000e+00 7.4400260e-04 
0.0000000e+00 0.0000000e+00 0.0000000e+00 
-6.4470842e-05 0.0000000e+00 7.4400260e-04 
0.0000000e+00 0.0000000e+00 0.0000000e+00 
-9.7426640e-05 0.0000000e+00 1.1270976e-03 
0.0000000e+00 0.0000000e+00 0.0000000e+00 
-9.7426640e-05 0.0000000e+00 1.1270976e-03 
0.0000000e+00 0.0000000e+00 0.0000000e+00 
-1.3657993e-04 0.0000000e+00 1.5852049e-03 
0.0000000e+00 0.0000000e+00 0.0000000e+00 
-1.3657993e-04 0.0000000e+00 1.5852049e-03 
0.0000000e+00 0.0000000e+00 0.0000000e+00 
-1.8294179e-04 0.0000000e+00 2.1323892e-03 
0.0000000e+00 0.0000000e+00 0.0000000e+00 
0.0000000e+00 0.0000000e+00 0.0000000e+00 
-1.8294179e-04 0.0000000e+00 2.1323892e-03 
0.0000000e+00 0.0000000e+00 0.0000000e+00 
0.0000000e+00 0.0000000e+00 0.0000000e+00 
-2.3120233e-04 0.0000000e+00 2.7084036e-03 
0.0000000e+00 0.0000000e+00 0.0000000e+00 
-2.3120233e-04 0.0000000e+00 2.7084036e-03 
0.0000000e+00 0.0000000e+00 0.0000000e+00 
-2.7849698e-04 0.0000000e+00 3.2804375e-03 
0.0000000e+00 0.0000000e+00 0.0000000e+00 
-2.7849698e-04 0.0000000e+00 3.2804375e-03 
0.0000000e+00 0.0000000e+00 0.0000000e+00 
0.0000000e+00 0.0000000e+00 0.0000000e+00 
-3.2472412e-04 0.0000000e+00 3.8480488e-03 
0.0000000e+00 0.0000000e+00 0.0000000e+00 
-3.2472412e-04 0.0000000e+00 3.8480488e-03 
0.0000000e+00 0.0000000e+00 0.0000000e+00 
-3.6977719e-04 0.0000000e+00 4.4107463e-03 
0.0000000e+00 0.0000000e+00 0.0000000e+00 
-3.6977719e-04 0.0000000e+00 4.4107463e-03 
0.0000000e+00 0.0000000e+00 0.0000000e+00 
-4.1360025e-04 0.0000000e+00 4.9682407e-03 
0.0000000e+00 0.0000000e+00 0.0000000e+00 
-4.1360025e-04 0.0000000e+00 4.9682407e-03 
0.0000000e+00 0.0000000e+00 0.0000000e+00 
-4.5619564e-04 0.0000000e+00 5.5205022e-03 
0.0000000e+00 0.0000000e+00 0.0000000e+00 
-4.5619564e-04 0.0000000e+00 5.5205022e-03 
0.0000000e+00 0.0000000e+00 0.0000000e+00 
0.0000000e+00 0.0000000e+00 0.0000000e+00 
-4.9753672e-04 0.0000000e+00 6.0673718e-03 
0.0000000e+00 0.0000000e+00 0.0000000e+00 
-4.9753672e-04 0.0000000e+00 6.0673718e-03 
0.0000000e+00 0.0000000e+00 0.0000000e+00 
-5.3757192e-04 0.0000000e+00 6.6085605e-03 
0.0000000e+00 0.0000000e+00 0.0000000e+00 
-5.3757192e-04 0.0000000e+00 6.6085605e-03 
0.0000000e+00 0.0000000e+00 0.0000000e+00 
-5.7628955e-04 0.0000000e+00 7.1439502e-03 
0.0000000e+00 0.0000000e+00 0.0000000e+00 
-5.7628955e-04 0.0000000e+00 7.1439502e-03 
0.0000000e+00 0.0000000e+00 0.0000000e+00 
0.0000000e+00 0.0000000e+00 0.0000000e+00 
-6.1371208e-04 0.0000000e+00 7.6735863e-03 
-6.1371208e-04 0.0000000e+00 7.6735863e-03 
0.0000000e+00 0.0000000e+00 0.0000000e+00 
0.0000000e+00 0.0000000e+00 0.0000000e+00 
-6.4983220e-04 0.0000000e+00 8.1973833e-03 
-6.4983220e-04 0.0000000e+00 8.1973833e-03 
0.0000000e+00 0.0000000e+00 0.0000000e+00 
0.0000000e+00 0.0000000e+00 0.0000000e+00 
-6.8460814e-04 0.0000000e+00 8.7150743e-03 
-6.8460814e-04 0.0000000e+00 8.7150743e-03 
0.0000000e+00 0.0000000e+00 0.0000000e+00 
0.0000000e+00 0.0000000e+00 0.0000000e+00 
-7.1803282e-04 0.0000000e+00 9.2265473e-03 
-7.1803282e-04 0.0000000e+00 9.2265473e-03 
0.0000000e+00 0.0000000e+00 0.0000000e+00 
0.0000000e+00 0.0000000e+00 0.0000000e+00 
-7.5013794e-04 0.0000000e+00 9.7318870e-03 
0.0000000e+00 0.0000000e+00 0.0000000e+00 
-7.5013794e-04 0.0000000e+00 9.7318870e-03 
0.0000000e+00 0.0000000e+00 0.0000000e+00 
-7.8092323e-04 0.0000000e+00 1.0231030e-02 
0.0000000e+00 0.0000000e+00 0.0000000e+00 
-7.8092323e-04 0.0000000e+00 1.0231030e-02 
0.0000000e+00 0.0000000e+00 0.0000000e+00 
-8.1036169e-04 0.0000000e+00 1.0723760e-02 
0.0000000e+00 0.0000000e+00 0.0000000e+00 
-8.1036169e-04 0.0000000e+00 1.0723760e-02 
0.0000000e+00 0.0000000e+00 0.0000000e+00 
0.0000000e+00 0.0000000e+00 0.0000000e+00 
-8.3846205e-04 0.0000000e+00 1.1210023e-02 
0.0000000e+00 0.0000000e+00 0.0000000e+00 
-8.3846205e-04 0.0000000e+00 1.1210023e-02 
0.0000000e+00 0.0000000e+00 0.0000000e+00 
-8.6526413e-04 0.0000000e+00 1.1689946e-02 
0.0000000e+00 0.0000000e+00 0.0000000e+00 
-8.6526413e-04 0.0000000e+00 1.1689946e-02 
0.0000000e+00 0.0000000e+00 0.0000000e+00 
0.0000000e+00 0.0000000e+00 0.0000000e+00 
-8.9077570e-04 0.0000000e+00 1.2163502e-02 
-8.9077570e-04 0.0000000e+00 1.2163502e-02 
0.0000000e+00 0.0000000e+00 0.0000000e+00 
0.0000000e+00 0.0000000e+00 0.0000000e+00 
-9.1496700e-04 0.0000000e+00 1.2630444e-02 
-9.1496700e-04 0.0000000e+00 1.2630444e-02 
0.0000000e+00 0.0000000e+00 0.0000000e+00 
0.0000000e+00 0.0000000e+00 0.0000000e+00 
-9.3783968e-04 0.0000000e+00 1.3090679e-02 
-9.3783968e-04 0.0000000e+00 1.3090679e-02 
0.0000000e+00 0.0000000e+00 0.0000000e+00 
0.0000000e+00 0.0000000e+00 0.0000000e+00 
-9.5943182e-04 0.0000000e+00 1.3544326e-02 
-9.5943182e-04 0.0000000e+00 1.3544326e-02 
0.0000000e+00 0.0000000e+00 0.0000000e+00 
0.0000000e+00 0.0000000e+00 0.0000000e+00 
-9.7975053e-04 0.0000000e+00 1.3991350e-02 
-9.7975053e-04 0.0000000e+00 1.3991350e-02 
0.0000000e+00 0.0000000e+00 0.0000000e+00 
0.0000000e+00 0.0000000e+00 0.0000000e+00 
-9.9877629e-04 0.0000000e+00 1.4431536e-02 
0.0000000e+00 0.0000000e+00 0.0000000e+00 
-9.9877629e-04 0.0000000e+00 1.4431536e-02 
0.0000000e+00 0.0000000e+00 0.0000000e+00 
-4.8136983e-05 0.0000000e+00 8.6403531e-04 
-1.0165209e-03 0.0000000e+00 1.4864829e-02 
-4.8136983e-05 0.0000000e+00 8.6403531e-04 
-1.0165209e-03 0.0000000e+00 1.4864829e-02 
-9.1882462e-05 0.0000000e+00 1.7663843e-03 
-1.0330226e-03 0.0000000e+00 1.5291358e-02 
-9.1882462e-05 0.0000000e+00 1.7663843e-03 
-1.0330226e-03 0.0000000e+00 1.5291358e-02 
-1.3295078e-04 0.0000000e+00 2.6750232e-03 
-1.3295078e-04 0.0000000e+00 2.6750232e-03 
-1.0482924e-03 0.0000000e+00 1.5711097e-02 
-1.0482924e-03 0.0000000e+00 1.5711097e-02 
-1.7218861e-04 0.0000000e+00 3.5772125e-03 
-1.7218861e-04 0.0000000e+00 3.5772125e-03 
-1.0623101e-03 0.0000000e+00 1.6123813e-02 
-1.0623101e-03 0.0000000e+00 1.6123813e-02 
-2.0957820e-04 0.0000000e+00 4.4728488e-03 
-2.0957820e-04 0.0000000e+00 4.4728488e-03 
-1.0750799e-03 0.0000000e+00 1.6529411e-02 
-1.0750799e-03 0.0000000e+00 1.6529411e-02 
-2.4499945e-04 0.0000000e+00 5.3614686e-03 
-2.4499945e-04 0.0000000e+00 5.3614686e-03 
-1.0866332e-03 0.0000000e+00 1.6927969e-02 
-1.0866332e-03 0.0000000e+00 1.6927969e-02 
-2.7826124e-04 0.0000000e+00 6.2422947e-03 
-2.7826124e-04 0.0000000e+00 6.2422947e-03 
-1.0969791e-03 0.0000000e+00 1.7319442e-02 
-1.0969791e-03 0.0000000e+00 1.7319442e-02 
-3.0922108e-04 0.0000000e+00 7.1147105e-03 
-3.0922108e-04 0.0000000e+00 7.1147105e-03 
-1.1061100e-03 0.0000000e+00 1.7703651e-02 
-3.3777629e-04 0.0000000e+00 7.9782099e-03 
-1.1061100e-03 0.0000000e+00 1.7703651e-02 
-3.3777629e-04 0.0000000e+00 7.9782099e-03 
-3.6383622e-04 0.0000000e+00 8.8323203e-03 
-1.1140396e-03 0.0000000e+00 1.8080536e-02 
-3.6383622e-04 0.0000000e+00 8.8323203e-03 
-1.1140396e-03 0.0000000e+00 1.8080536e-02 
-3.8733702e-04 0.0000000e+00 9.6766421e-03 
-1.1207984e-03 0.0000000e+00 1.8450167e-02 
-3.8733702e-04 0.0000000e+00 9.6766421e-03 
-1.1207984e-03 0.0000000e+00 1.8450167e-02 
-4.0824771e-04 0.0000000e+00 1.0510883e-02 
-4.0824771e-04 0.0000000e+00 1.0510883e-02 
-1.1263995e-03 0.0000000e+00 1.8812514e-02 
-1.1263995e-03 0.0000000e+00 1.8812514e-02 
-4.2656583e-04 0.0000000e+00 1.1334873e-02 
-4.2656583e-04 0.0000000e+00 1.1334873e-02 
-1.1308376e-03 0.0000000e+00 1.9167394e-02 
-1.1308376e-03 0.0000000e+00 1.9167394e-02 
-4.4226538e-04 0.0000000e+00 1.2148328e-02 
-4.4226538e-04 0.0000000e+00 1.2148328e-02 
-1.1341227e-03 0.0000000e+00 1.9514715e-02 
-1.1341227e-03 0.0000000e+00 1.9514715e-02 
-4.5530182e-04 0.0000000e+00 1.2950868e-02 
-4.5530182e-04 0.0000000e+00 1.2950868e-02 
-1.1362815e-03 0.0000000e+00 1.9854520e-02 
-1.1362815e-03 0.0000000e+00 1.9854520e-02 
-4.6566508e-04 0.0000000e+00 1.3742224e-02 
-4.6566508e-04 0.0000000e+00 1.3742224e-02 
-1.1373273e-03 0.0000000e+00 2.0186762e-02 
-1.1373273e-03 0.0000000e+00 2.0186762e-02 
-4.7335992e-04 0.0000000e+00 1.4522198e-02 
-4.7335992e-04 0.0000000e+00 1.4522198e-02 
-1.1372654e-03 0.0000000e+00 2.0511303e-02 
-1.1372654e-03 0.0000000e+00 2.0511303e-02 
-4.7837970e-04 0.0000000e+00 1.5290524e-02 
-4.7837970e-04 0.0000000e+00 1.5290524e-02 
-1.1361148e-03 0.0000000e+00 2.0828100e-02 
-1.1361148e-03 0.0000000e+00 2.0828100e-02 
-4.8072156e-04 0.0000000e+00 1.6046926e-02 
-4.8072156e-04 0.0000000e+00 1.6046926e-02 
-1.1339023e-03 0.0000000e+00 2.1137188e-02 
-4.8040668e-04 0.0000000e+00 1.6791226e-02 
-1.1339023e-03 0.0000000e+00 2.1137188e-02 
-4.8040668e-04 0.0000000e+00 1.6791226e-02 
-1.1306445e-03 0.0000000e+00 2.1438529e-02 
-4.7747493e-04 0.0000000e+00 1.7523327e-02 
-1.1306445e-03 0.0000000e+00 2.1438529e-02 
-4.7747493e-04 0.0000000e+00 1.7523327e-02 
-4.7194845e-04 0.0000000e+00 1.8243056e-02 
-1.1263491e-03 0.0000000e+00 2.1731992e-02 
-4.7194845e-04 0.0000000e+00 1.8243056e-02 
-1.1263491e-03 0.0000000e+00 2.1731992e-02 
-4.6383729e-04 0.0000000e+00 1.8950135e-02 
-4.6383729e-04 0.0000000e+00 1.8950135e-02 
-1.1210329e-03 0.0000000e+00 2.2017506e-02 
-1.1210329e-03 0.0000000e+00 2.2017506e-02 
-4.5317007e-04 0.0000000e+00 1.9644376e-02 
-4.5317007e-04 0.0000000e+00 1.9644376e-02 
-1.1147213e-03 0.0000000e+00 2.2295086e-02 
-1.1147213e-03 0.0000000e+00 2.2295086e-02 
-4.3998188e-04 0.0000000e+00 2.0325608e-02 
-4.3998188e-04 0.0000000e+00 2.0325608e-02 
-1.1074319e-03 0.0000000e+00 2.2564689e-02 
-1.1074319e-03 0.0000000e+00 2.2564689e-02 
-4.2430440e-04 0.0000000e+00 2.0993633e-02 
-4.2430440e-04 0.0000000e+00 2.0993633e-02 
-1.0991798e-03 0.0000000e+00 2.2826217e-02 
-1.0991798e-03 0.0000000e+00 2.2826217e-02 
-4.0617679e-04 0.0000000e+00 2.1648269e-02 
-4.0617679e-04 0.0000000e+00 2.1648269e-02 
-1.0899884e-03 0.0000000e+00 2.3079637e-02 
-1.0899884e-03 0.0000000e+00 2.3079637e-02 
-3.8564705e-04 0.0000000e+00 2.2289370e-02 
-3.8564705e-04 0.0000000e+00 2.2289370e-02 
-1.0798837e-03 0.0000000e+00 2.3324965e-02 
-1.0798837e-03 0.0000000e+00 2.3324965e-02 
-3.6277082e-04 0.0000000e+00 2.2916833e-02 
-3.6277082e-04 0.0000000e+00 2.2916833e-02 
-1.0688869e-03 0.0000000e+00 2.3562168e-02 
-1.0688869e-03 0.0000000e+00 2.3562168e-02 
-3.3760000e-04 0.0000000e+00 2.3530518e-02 
-3.3760000e-04 0.0000000e+00 2.3530518e-02 
-1.0570148e-03 0.0000000e+00 2.3791155e-02 
-1.0570148e-03 0.0000000e+00 2.3791155e-02 
-3.1018389e-04 0.0000000e+00 2.4130254e-02 
-3.1018389e-04 0.0000000e+00 2.4130254e-02 
-1.0442897e-03 0.0000000e+00 2.4011878e-02 
-1.0442897e-03 0.0000000e+00 2.4011878e-02 
-2.8057702e-04 0.0000000e+00 2.4715885e-02 
-2.8057702e-04 0.0000000e+00 2.4715885e-02 
-1.0307373e-03 0.0000000e+00 2.4224336e-02 
-1.0307373e-03 0.0000000e+00 2.4224336e-02 
-2.4883413e-04 0.0000000e+00 2.5287234e-02 
-2.4883413e-04 0.0000000e+00 2.5287234e-02 
-1.0163804e-03 0.0000000e+00 2.4428498e-02 
-1.0163804e-03 0.0000000e+00 2.4428498e-02 
-2.1501632e-04 0.0000000e+00 2.5844154e-02 
-2.1501632e-04 0.0000000e+00 2.5844154e-02 
-1.0012408e-03 0.0000000e+00 2.4624301e-02 
-1.7919367e-04 0.0000000e+00 2.6386549e-02 
-1.0012408e-03 0.0000000e+00 2.4624301e-02 
-1.7919367e-04 0.0000000e+00 2.6386549e-02 
-1.4143471e-04 0.0000000e+00 2.6914304e-02 
-9.8534442e-04 0.0000000e+00 2.4811720e-02 
-1.4143471e-04 0.0000000e+00 2.6914304e-02 
-9.8534442e-04 0.0000000e+00 2.4811720e-02 
-1.0180863e-04 0.0000000e+00 2.7427283e-02 
-9.6871814e-04 0.0000000e+00 2.4990754e-02 
-1.0180863e-04 0.0000000e+00 2.7427283e-02 
-9.6871814e-04 0.0000000e+00 2.4990754e-02 
-6.0389994e-05 0.0000000e+00 2.7925384e-02 
-6.0389994e-05 0.0000000e+00 2.7925384e-02 
-9.5138689e-04 0.0000000e+00 2.5161386e-02 
-9.5138689e-04 0.0000000e+00 2.5161386e-02 
-1.7257179e-05 0.0000000e+00 2.8408531e-02 
-1.7257179e-05 0.0000000e+00 2.8408531e-02 
-9.3337447e-04 0.0000000e+00 2.5323564e-02 
-9.3337447e-04 0.0000000e+00 2.5323564e-02 
2.7515414e-05 0.0000000e+00 2.8876600e-02 
2.7515414e-05 0.0000000e+00 2.8876600e-02 
-9.1470620e-04 0.0000000e+00 2.5477253e-02 
-9.1470620e-04 0.0000000e+00 2.5477253e-02 
7.3855470e-05 0.0000000e+00 2.9329402e-02 
7.3855470e-05 0.0000000e+00 2.9329402e-02 
-8.9540888e-04 0.0000000e+00 2.5622442e-02 
-8.9540888e-04 0.0000000e+00 2.5622442e-02 
1.2168059e-04 0.0000000e+00 2.9766820e-02 
1.2168059e-04 0.0000000e+00 2.9766820e-02 
-8.7550885e-04 0.0000000e+00 2.5759111e-02 
-8.7550885e-04 0.0000000e+00 2.5759111e-02 
1.7090089e-04 0.0000000e+00 3.0188831e-02 
1.7090089e-04 0.0000000e+00 3.0188831e-02 
-8.5503237e-04 0.0000000e+00 2.5887228e-02 
-8.5503237e-04 0.0000000e+00 2.5887228e-02 
2.2143314e-04 0.0000000e+00 3.0595327e-02 
2.2143314e-04 0.0000000e+00 3.0595327e-02 
-8.3400693e-04 0.0000000e+00 2.6006774e-02 
-8.3400693e-04 0.0000000e+00 2.6006774e-02 
2.7319424e-04 0.0000000e+00 3.0986113e-02 
2.7319424e-04 0.0000000e+00 3.0986113e-02 
-8.1246039e-04 0.0000000e+00 2.6117737e-02 
-8.1246039e-04 0.0000000e+00 2.6117737e-02 
3.2608701e-04 0.0000000e+00 3.1361135e-02 
3.2608701e-04 0.0000000e+00 3.1361135e-02 
-7.9042054e-04 0.0000000e+00 2.6220112e-02 
-7.9042054e-04 0.0000000e+00 2.6220112e-02 
3.8000937e-04 0.0000000e+00 3.1720499e-02 
3.8000937e-04 0.0000000e+00 3.1720499e-02 
-7.6791520e-04 0.0000000e+00 2.6313884e-02 
-7.6791520e-04 0.0000000e+00 2.6313884e-02 
4.3486888e-04 0.0000000e+00 3.2064165e-02 
4.3486888e-04 0.0000000e+00 3.2064165e-02 
-7.4497229e-04 0.0000000e+00 2.6399037e-02 
-7.4497229e-04 0.0000000e+00 2.6399037e-02 
4.9056857e-04 0.0000000e+00 3.2391988e-02 
4.9056857e-04 0.0000000e+00 3.2391988e-02 
-7.2161988e-04 0.0000000e+00 2.6475562e-02 
-7.2161988e-04 0.0000000e+00 2.6475562e-02 
5.4699701e-04 0.0000000e+00 3.2704106e-02 
5.4699701e-04 0.0000000e+00 3.2704106e-02 
-6.9788674e-04 0.0000000e+00 2.6543452e-02 
-6.9788674e-04 0.0000000e+00 2.6543452e-02 
6.0376795e-04 0.0000000e+00 3.2999473e-02 
6.0376795e-04 0.0000000e+00 3.2999473e-02 
-6.7372971e-04 0.0000000e+00 2.6602880e-02 
-6.7372971e-04 0.0000000e+00 2.6602880e-02 
6.7257493e-04 0.0000000e+00 3.3334141e-02 
6.7257493e-04 0.0000000e+00 3.3334141e-02 
-6.4431425e-04 0.0000000e+00 2.6662736e-02 
-6.4431425e-04 0.0000000e+00 2.6662736e-02 
7.5592540e-04 0.0000000e+00 3.3707447e-02 
7.5592540e-04 0.0000000e+00 3.3707447e-02 
-6.0846778e-04 0.0000000e+00 2.6718058e-02 
-6.0846778e-04 0.0000000e+00 2.6718058e-02 
8.5673693e-04 0.0000000e+00 3.4114988e-02 
8.5673693e-04 0.0000000e+00 3.4114988e-02 
-5.6522450e-04 0.0000000e+00 2.6760485e-02 
-5.6522450e-04 0.0000000e+00 2.6760485e-02 
9.6345626e-04 0.0000000e+00 3.4496696e-02 
9.6345626e-04 0.0000000e+00 3.4496696e-02 
-5.2139324e-04 0.0000000e+00 2.6777586e-02 
-5.2139324e-04 0.0000000e+00 2.6777586e-02 
1.0701697e-03 0.0000000e+00 3.4828943e-02 
1.0701697e-03 0.0000000e+00 3.4828943e-02 
-4.7711809e-04 0.0000000e+00 2.6769190e-02 
-4.7711809e-04 0.0000000e+00 2.6769190e-02 
1.1763475e-03 0.0000000e+00 3.5111392e-02 
1.1763475e-03 0.0000000e+00 3.5111392e-02 
-4.3254296e-04 0.0000000e+00 2.6735341e-02 
-4.3254296e-04 0.0000000e+00 2.6735341e-02 
1.2814513e-03 0.0000000e+00 3.5343977e-02 
1.2814513e-03 0.0000000e+00 3.5343977e-02 
-3.8781149e-04 0.0000000e+00 2.6676028e-02 
-3.8781149e-04 0.0000000e+00 2.6676028e-02 
1.3849453e-03 0.0000000e+00 3.5526762e-02 
1.3849453e-03 0.0000000e+00 3.5526762e-02 
-3.4307419e-04 0.0000000e+00 2.6591153e-02 
-3.4307419e-04 0.0000000e+00 2.6591153e-02 
1.4863051e-03 0.0000000e+00 3.5660033e-02 
1.4863051e-03 0.0000000e+00 3.5660033e-02 
-2.9847174e-04 0.0000000e+00 2.6480910e-02 
-2.9847174e-04 0.0000000e+00 2.6480910e-02 
1.5850214e-03 0.0000000e+00 3.5744184e-02 
1.5850214e-03 0.0000000e+00 3.5744184e-02 
-2.5414419e-04 0.0000000e+00 2.6345355e-02 