# vtk DataFile Version 4.0
vtk output
ASCII
DATASET UNSTRUCTURED_GRID
POINTS 824 float
-6.4148600e-05 1.0000000e-02 -4.4525366e-03 
-1.0680180e-04 1.0000000e-02 -2.8088474e-03 
3.4513260e-04 1.0000000e-02 -6.0450544e-03 
1.3803532e-03 1.0000000e-02 -7.3230534e-03 
6.5829700e-05 1.0000000e-02 -1.1736922e-03 
2.7142144e-03 1.0000000e-02 -8.2851896e-03 
5.0392030e-04 1.0000000e-02 6.5784910e-04 
4.1780764e-03 1.0000000e-02 -9.0342357e-03 
1.1628646e-03 1.0000000e-02 2.4220088e-03 
5.7070961e-03 1.0000000e-02 -9.6390187e-03 
2.0046218e-03 1.0000000e-02 4.1066196e-03 
7.2731595e-03 1.0000000e-02 -1.0140047e-02 
-6.4148600e-05 0.0000000e+00 -4.4525366e-03 
-1.0680180e-04 0.0000000e+00 -2.8088474e-03 
3.4513260e-04 0.0000000e+00 -6.0450544e-03 
1.3803532e-03 0.0000000e+00 -7.3230534e-03 
6.5829700e-05 0.0000000e+00 -1.1736922e-03 
2.9952540e-03 1.0000000e-02 5.7082181e-03 
8.8622628e-03 1.0000000e-02 -1.0562311e-02 
2.7142144e-03 0.0000000e+00 -8.2851896e-03 
5.0392030e-04 0.0000000e+00 6.5784910e-04 
4.1780764e-03 0.0000000e+00 -9.0342357e-03 
1.1628646e-03 0.0000000e+00 2.4220088e-03 
1.0466628e-02 1.0000000e-02 -1.0922252e-02 
4.1067238e-03 1.0000000e-02 7.2284501e-03 
5.7070961e-03 0.0000000e+00 -9.6390187e-03 
2.0046218e-03 0.0000000e+00 4.1066196e-03 
7.2731595e-03 0.0000000e+00 -1.0140047e-02 
1.2081579e-02 1.0000000e-02 -1.1231240e-02 
5.3166988e-03 1.0000000e-02 8.6715129e-03 
2.9952540e-03 0.0000000e+00 5.7082181e-03 
8.8622628e-03 0.0000000e+00 -1.0562311e-02 
1.3704120e-02 1.0000000e-02 -1.1497501e-02 
1.0466628e-02 0.0000000e+00 -1.0922252e-02 
4.1067238e-03 0.0000000e+00 7.2284501e-03 
6.6076374e-03 1.0000000e-02 1.0042624e-02 
1.5332244e-02 1.0000000e-02 -1.1727173e-02 
1.2081579e-02 0.0000000e+00 -1.1231240e-02 
5.3166988e-03 0.0000000e+00 8.6715129e-03 
7.9658343e-03 1.0000000e-02 1.1347144e-02 
1.3704120e-02 0.0000000e+00 -1.1497501e-02 
1.6964543e-02 1.0000000e-02 -1.1925002e-02 
6.6076374e-03 0.0000000e+00 1.0042624e-02 
9.3804686e-03 1.0000000e-02 1.2590236e-02 
1.5332244e-02 0.0000000e+00 -1.1727173e-02 
1.8600004e-02 1.0000000e-02 -1.2094716e-02 
7.9658343e-03 0.0000000e+00 1.1347144e-02 
1.6964543e-02 0.0000000e+00 -1.1925002e-02 
1.0843002e-02 1.0000000e-02 1.3776601e-02 
2.0237876e-02 1.0000000e-02 -1.2239318e-02 
9.3804686e-03 0.0000000e+00 1.2590236e-02 
1.8600004e-02 0.0000000e+00 -1.2094716e-02 
1.2346566e-02 1.0000000e-02 1.4910517e-02 
2.1877591e-02 1.0000000e-02 -1.2361246e-02 
1.0843002e-02 0.0000000e+00 1.3776601e-02 
2.0237876e-02 0.0000000e+00 -1.2239318e-02 
1.3885623e-02 1.0000000e-02 1.5995768e-02 
2.3518711e-02 1.0000000e-02 -1.2462540e-02 
1.2346566e-02 0.0000000e+00 1.4910517e-02 
2.1877591e-02 0.0000000e+00 -1.2361246e-02 
2.5160890e-02 1.0000000e-02 -1.2544903e-02 
1.5455654e-02 1.0000000e-02 1.7035707e-02 
1.3885623e-02 0.0000000e+00 1.5995768e-02 
2.3518711e-02 0.0000000e+00 -1.2462540e-02 
2.6803852e-02 1.0000000e-02 -1.2609772e-02 
1.7052912e-02 1.0000000e-02 1.8033321e-02 
2.5160890e-02 0.0000000e+00 -1.2544903e-02 
1.5455654e-02 0.0000000e+00 1.7035707e-02 
2.8447376e-02 1.0000000e-02 -1.2658389e-02 
2.6803852e-02 0.0000000e+00 -1.2609772e-02 
1.7052912e-02 0.0000000e+00 1.8033321e-02 
1.8674284e-02 1.0000000e-02 1.8991246e-02 
3.0091279e-02 1.0000000e-02 -1.2691814e-02 
2.8447376e-02 0.0000000e+00 -1.2658389e-02 
1.8674284e-02 0.0000000e+00 1.8991246e-02 
2.0317149e-02 1.0000000e-02 1.9911822e-02 
3.0091279e-02 0.0000000e+00 -1.2691814e-02 
3.1735410e-02 1.0000000e-02 -1.2710971e-02 
2.0317149e-02 0.0000000e+00 1.9911822e-02 
2.1979295e-02 1.0000000e-02 2.0797113e-02 
3.1735410e-02 0.0000000e+00 -1.2710971e-02 
3.3379643e-02 1.0000000e-02 -1.2716676e-02 
2.1979295e-02 0.0000000e+00 2.0797113e-02 
2.3658832e-02 1.0000000e-02 2.1648949e-02 
3.3379643e-02 0.0000000e+00 -1.2716676e-02 
3.5023871e-02 1.0000000e-02 -1.2709629e-02 
2.3658832e-02 0.0000000e+00 2.1648949e-02 
2.5354100e-02 1.0000000e-02 2.2469029e-02 
3.5023871e-02 0.0000000e+00 -1.2709629e-02 
3.6668001e-02 1.0000000e-02 -1.2690457e-02 
2.5354100e-02 0.0000000e+00 2.2469029e-02 
2.7063712e-02 1.0000000e-02 2.3258772e-02 
3.6668001e-02 0.0000000e+00 -1.2690457e-02 
3.8312016e-02 1.0000000e-02 -1.2663038e-02 
2.7063712e-02 0.0000000e+00 2.3258772e-02 
3.8312016e-02 0.0000000e+00 -1.2663038e-02 
2.8786417e-02 1.0000000e-02 2.4019532e-02 
3.9956032e-02 1.0000000e-02 -1.2635752e-02 
2.8786417e-02 0.0000000e+00 2.4019532e-02 
3.9956032e-02 0.0000000e+00 -1.2635752e-02 
3.0521135e-02 1.0000000e-02 2.4752486e-02 
4.1600048e-02 1.0000000e-02 -1.2608467e-02 
3.0521135e-02 0.0000000e+00 2.4752486e-02 
4.1600048e-02 0.0000000e+00 -1.2608467e-02 
3.2266919e-02 1.0000000e-02 2.5458676e-02 
4.3299814e-02 1.0000000e-02 -1.2580255e-02 
3.2266919e-02 0.0000000e+00 2.5458676e-02 
4.3299814e-02 0.0000000e+00 -1.2580255e-02 
3.4022902e-02 1.0000000e-02 2.6139111e-02 
4.5339533e-02 1.0000000e-02 -1.2546402e-02 
3.4022902e-02 0.0000000e+00 2.6139111e-02 
4.5339533e-02 0.0000000e+00 -1.2546402e-02 
3.5788340e-02 1.0000000e-02 2.6794623e-02 
4.7787196e-02 1.0000000e-02 -1.2505778e-02 
3.5788340e-02 0.0000000e+00 2.6794623e-02 
3.7562554e-02 1.0000000e-02 2.7425996e-02 
4.7787196e-02 0.0000000e+00 -1.2505778e-02 
3.7562554e-02 0.0000000e+00 2.7425996e-02 
3.9344928e-02 1.0000000e-02 2.8033950e-02 
5.0379113e-02 1.0000000e-02 -1.2462760e-02 
3.9344928e-02 0.0000000e+00 2.8033950e-02 
5.0379113e-02 0.0000000e+00 -1.2462760e-02 
4.1134916e-02 1.0000000e-02 2.8619109e-02 
5.2971029e-02 1.0000000e-02 -1.2419741e-02 
4.1134916e-02 0.0000000e+00 2.8619109e-02 
5.2971029e-02 0.0000000e+00 -1.2419741e-02 
4.2932026e-02 1.0000000e-02 2.9182016e-02 
4.2932026e-02 0.0000000e+00 2.9182016e-02 
5.5562946e-02 1.0000000e-02 -1.2376723e-02 
4.5339682e-02 1.0000000e-02 2.9899231e-02 
5.5562946e-02 0.0000000e+00 -1.2376723e-02 
4.5339682e-02 0.0000000e+00 2.9899231e-02 
5.8154863e-02 1.0000000e-02 -1.2333705e-02 
4.7758221e-02 1.0000000e-02 3.0578844e-02 
5.8154863e-02 0.0000000e+00 -1.2333705e-02 
4.7758221e-02 0.0000000e+00 3.0578844e-02 
6.0746779e-02 1.0000000e-02 -1.2290686e-02 
5.0186760e-02 1.0000000e-02 3.1221807e-02 
6.0746779e-02 0.0000000e+00 -1.2290686e-02 
5.0186760e-02 0.0000000e+00 3.1221807e-02 
6.3338696e-02 1.0000000e-02 -1.2247668e-02 
5.2624513e-02 1.0000000e-02 3.1828903e-02 
6.3338696e-02 0.0000000e+00 -1.2247668e-02 
5.2624513e-02 0.0000000e+00 3.1828903e-02 
5.5070762e-02 1.0000000e-02 3.2400804e-02 
6.5930613e-02 1.0000000e-02 -1.2204650e-02 
5.5070762e-02 0.0000000e+00 3.2400804e-02 
6.5930613e-02 0.0000000e+00 -1.2204650e-02 
5.7524847e-02 1.0000000e-02 3.2938082e-02 
6.8522529e-02 1.0000000e-02 -1.2161631e-02 
5.7524847e-02 0.0000000e+00 3.2938082e-02 
6.8522529e-02 0.0000000e+00 -1.2161631e-02 
5.9986169e-02 1.0000000e-02 3.3441170e-02 
7.1114446e-02 1.0000000e-02 -1.2118613e-02 
5.9986169e-02 0.0000000e+00 3.3441170e-02 
7.1114446e-02 0.0000000e+00 -1.2118613e-02 
6.2454163e-02 1.0000000e-02 3.3910436e-02 
6.2454163e-02 0.0000000e+00 3.3910436e-02 
7.3706362e-02 1.0000000e-02 -1.2075595e-02 
7.3706362e-02 0.0000000e+00 -1.2075595e-02 
6.4928303e-02 1.0000000e-02 3.4346139e-02 
6.4928303e-02 0.0000000e+00 3.4346139e-02 
7.6298279e-02 1.0000000e-02 -1.2032577e-02 
7.6298279e-02 0.0000000e+00 -1.2032577e-02 
6.7408092e-02 1.0000000e-02 3.4748446e-02 
6.7408092e-02 0.0000000e+00 3.4748446e-02 
7.8890196e-02 1.0000000e-02 -1.1989558e-02 
7.8890196e-02 0.0000000e+00 -1.1989558e-02 
6.9893057e-02 1.0000000e-02 3.5117436e-02 
6.9893057e-02 0.0000000e+00 3.5117436e-02 
8.1482112e-02 1.0000000e-02 -1.1946540e-02 
8.1482112e-02 0.0000000e+00 -1.1946540e-02 
7.2382742e-02 1.0000000e-02 3.5453098e-02 
7.2382742e-02 0.0000000e+00 3.5453098e-02 
8.4074029e-02 1.0000000e-02 -1.1903522e-02 
7.4876707e-02 1.0000000e-02 3.5755332e-02 
8.4074029e-02 0.0000000e+00 -1.1903522e-02 
7.4876707e-02 0.0000000e+00 3.5755332e-02 
8.6665946e-02 1.0000000e-02 -1.1860503e-02 
7.7374516e-02 1.0000000e-02 3.6023948e-02 
8.6665946e-02 0.0000000e+00 -1.1860503e-02 
7.7374516e-02 0.0000000e+00 3.6023948e-02 
8.9257862e-02 1.0000000e-02 -1.1817485e-02 
7.9875738e-02 1.0000000e-02 3.6258665e-02 
8.9257862e-02 0.0000000e+00 -1.1817485e-02 
7.9875738e-02 0.0000000e+00 3.6258665e-02 
8.2379940e-02 1.0000000e-02 3.6459105e-02 
9.1849779e-02 1.0000000e-02 -1.1774467e-02 
8.2379940e-02 0.0000000e+00 3.6459105e-02 
9.1849779e-02 0.0000000e+00 -1.1774467e-02 
8.4886681e-02 1.0000000e-02 3.6624786e-02 
9.4441696e-02 1.0000000e-02 -1.1731448e-02 
8.4886681e-02 0.0000000e+00 3.6624786e-02 
9.4441696e-02 0.0000000e+00 -1.1731448e-02 
8.7395510e-02 1.0000000e-02 3.6755108e-02 
8.7395510e-02 0.0000000e+00 3.6755108e-02 
9.7033612e-02 1.0000000e-02 -1.1688430e-02 
9.7033612e-02 0.0000000e+00 -1.1688430e-02 
8.9905951e-02 1.0000000e-02 3.6849401e-02 
8.9905951e-02 0.0000000e+00 3.6849401e-02 
9.9625529e-02 1.0000000e-02 -1.1645412e-02 
9.9625529e-02 0.0000000e+00 -1.1645412e-02 
9.2417505e-02 1.0000000e-02 3.6906832e-02 
9.2417505e-02 0.0000000e+00 3.6906832e-02 
1.0221745e-01 1.0000000e-02 -1.1602393e-02 
1.0221745e-01 0.0000000e+00 -1.1602393e-02 
9.4929640e-02 1.0000000e-02 3.6926425e-02 
9.4929640e-02 0.0000000e+00 3.6926425e-02 
1.0480936e-01 1.0000000e-02 -1.1559375e-02 
1.0480936e-01 0.0000000e+00 -1.1559375e-02 
9.7441776e-02 1.0000000e-02 3.6907077e-02 
9.7441776e-02 0.0000000e+00 3.6907077e-02 
1.0740128e-01 1.0000000e-02 -1.1516357e-02 
1.0740128e-01 0.0000000e+00 -1.1516357e-02 
9.9953281e-02 1.0000000e-02 3.6847529e-02 
9.9953281e-02 0.0000000e+00 3.6847529e-02 
1.0999320e-01 1.0000000e-02 -1.1473339e-02 
1.0246345e-01 1.0000000e-02 3.6746314e-02 
1.0999320e-01 0.0000000e+00 -1.1473339e-02 
1.0246345e-01 0.0000000e+00 3.6746314e-02 
1.0497150e-01 1.0000000e-02 3.6601738e-02 
1.1258511e-01 1.0000000e-02 -1.1430320e-02 
1.0497150e-01 0.0000000e+00 3.6601738e-02 
1.1258511e-01 0.0000000e+00 -1.1430320e-02 
1.0747666e-01 1.0000000e-02 3.6413638e-02 
1.1517703e-01 1.0000000e-02 -1.1387302e-02 
1.0747666e-01 0.0000000e+00 3.6413638e-02 
[...]
POINT_DATA 824
FIELD FieldData 2
DISPLACEMENT 3 824  float
0.0000000e+00 0.0000000e+00 0.0000000e+00 
0.0000000e+00 0.0000000e+00 0.0000000e+00 
0.0000000e+00 0.0000000e+00 0.0000000e+00 
0.0000000e+00 0.0000000e+00 0.0000000e+00 
0.0000000e+00 0.0000000e+00 0.0000000e+00 
0.0000000e+00 0.0000000e+00 0.0000000e+00 
0.0000000e+00 0.0000000e+00 0.0000000e+00 
0.0000000e+00 0.0000000e+00 0.0000000e+00 
0.0000000e+00 0.0000000e+00 0.0000000e+00 
0.0000000e+00 0.0000000e+00 0.0000000e+00 
0.0000000e+00 0.0000000e+00 0.0000000e+00 
0.0000000e+00 0.0000000e+00 0.0000000e+00 
0.0000000e+00 0.0000000e+00 0.0000000e+00 
0.0000000e+00 0.0000000e+00 0.0000000e+00 
0.0000000e+00 0.0000000e+00 0.0000000e+00 
0.0000000e+00 0.0000000e+00 0.0000000e+00 
0.0000000e+00 0.0000000e+00 0.0000000e+00 
0.0000000e+00 0.0000000e+00 0.0000000e+00 
0.0000000e+00 0.0000000e+00 0.0000000e+00 
0.0000000e+00 0.0000000e+00 0.0000000e+00 
0.0000000e+00 0.0000000e+00 0.0000000e+00 
0.0000000e+00 0.0000000e+00 0.0000000e+00 
0.0000000e+00 0.0000000e+00 0.0000000e+00 
0.0000000e+00 0.0000000e+00 0.0000000e+00 
0.0000000e+00 0.0000000e+00 0.0000000e+00 
0.0000000e+00 0.0000000e+00 0.0000000e+00 
0.0000000e+00 0.0000000e+00 0.0000000e+00 
0.0000000e+00 0.0000000e+00 0.0000000e+00 
0.0000000e+00 0.0000000e+00 0.0000000e+00 
0.0000000e+00 0.0000000e+00 0.0000000e+00 
0.0000000e+00 0.0000000e+00 0.0000000e+00 
0.0000000e+00 0.0000000e+00 0.0000000e+00 
0.0000000e+00 0.0000000e+00 0.0000000e+00 
0.0000000e+00 0.0000000e+00 0.0000000e+00 
0.0000000e+00 0.0000000e+00 0.0000000e+00 
0.0000000e+00 0.0000000e+00 0.0000000e+00 
0.0000000e+00 0.0000000e+00 0.0000000e+00 
0.0000000e+00 0.0000000e+00 0.0000000e+00 
0.0000000e+00 0.0000000e+00 0.0000000e+00 
0.0000000e+00 0.0000000e+00 0.0000000e+00 
0.0000000e+00 0.0000000e+00 0.0000000e+00 
0.0000000e+00 0.0000000e+00 0.0000000e+00 
0.0000000e+00 0.0000000e+00 0.0000000e+00 
0.0000000e+00 0.0000000e+00 0.0000000e+00 
0.0000000e+00 0.0000000e+00 0.0000000e+00 
0.0000000e+00 0.0000000e+00 0.0000000e+00 
0.0000000e+00 0.0000000e+00 0.0000000e+00 
0.0000000e+00 0.0000000e+00 0.0000000e+00 
0.0000000e+00 0.0000000e+00 0.0000000e+00 
0.0000000e+00 0.0000000e+00 0.0000000e+00 
0.0000000e+00 0.0000000e+00 0.0000000e+00 
0.0000000e+00 0.0000000e+00 0.0000000e+00 
0.0000000e+00 0.0000000e+00 0.0000000e+00 
0.0000000e+00 0.0000000e+00 0.0000000e+00 
0.0000000e+00 0.0000000e+00 0.0000000e+00 
0.0000000e+00 0.0000000e+00 0.0000000e+00 
0.0000000e+00 0.0000000e+00 0.0000000e+00 
0.0000000e+00 0.0000000e+00 0.0000000e+00 
0.0000000e+00 0.0000000e+00 0.0000000e+00 
0.0000000e+00 0.0000000e+00 0.0000000e+00 
0.0000000e+00 0.0000000e+00 0.0000000e+00 
0.0000000e+00 0.0000000e+00 0.0000000e+00 
0.0000000e+00 0.0000000e+00 0.0000000e+00 
0.0000000e+00 0.0000000e+00 0.0000000e+00 
0.0000000e+00 0.0000000e+00 0.0000000e+00 
0.0000000e+00 0.0000000e+00 0.0000000e+00 
0.0000000e+00 0.0000000e+00 0.0000000e+00 
0.0000000e+00 0.0000000e+00 0.0000000e+00 
0.0000000e+00 0.0000000e+00 0.0000000e+00 
0.0000000e+00 0.0000000e+00 0.0000000e+00 
0.0000000e+00 0.0000000e+00 0.0000000e+00 
0.0000000e+00 0.0000000e+00 0.0000000e+00 
0.0000000e+00 0.0000000e+00 0.0000000e+00 
0.0000000e+00 0.0000000e+00 0.0000000e+00 
0.0000000e+00 0.0000000e+00 0.0000000e+00 
0.0000000e+00 0.0000000e+00 0.0000000e+00 
0.0000000e+00 0.0000000e+00 0.0000000e+00 
0.0000000e+00 0.0000000e+00 0.0000000e+00 
0.0000000e+00 0.0000000e+00 0.0000000e+00 
0.0000000e+00 0.0000000e+00 0.0000000e+00 
0.0000000e+00 0.0000000e+00 0.0000000e+00 
0.0000000e+00 0.0000000e+00 0.0000000e+00 
0.0000000e+00 0.0000000e+00 0.0000000e+00 
0.0000000e+00 0.0000000e+00 0.0000000e+00 
0.0000000e+00 0.0000000e+00 0.0000000e+00 
0.0000000e+00 0.0000000e+00 0.0000000e+00 
0.0000000e+00 0.0000000e+00 0.0000000e+00 
0.0000000e+00 0.0000000e+00 0.0000000e+00 
0.0000000e+00 0.0000000e+00 0.0000000e+00 
0.0000000e+00 0.0000000e+00 0.0000000e+00 
0.0000000e+00 0.0000000e+00 0.0000000e+00 
0.0000000e+00 0.0000000e+00 0.0000000e+00 
0.0000000e+00 0.0000000e+00 0.0000000e+00 
0.0000000e+00 0.0000000e+00 0.0000000e+00 
0.0000000e+00 0.0000000e+00 0.0000000e+00 
0.0000000e+00 0.0000000e+00 0.0000000e+00 
0.0000000e+00 0.0000000e+00 0.0000000e+00 
-8.0126059e-06 0.0000000e+00 1.5000722e-04 
0.0000000e+00 0.0000000e+00 0.0000000e+00 
-8.0126059e-06 0.0000000e+00 1.5000722e-04 
0.0000000e+00 0.0000000e+00 0.0000000e+00 
-1.5822268e-05 0.0000000e+00 2.9807940e-04 
0.0000000e+00 0.0000000e+00 0.0000000e+00 
-1.5822268e-05 0.0000000e+00 2.9807940e-04 
0.0000000e+00 0.0000000e+00 0.0000000e+00 
-2.3683364e-05 0.0000000e+00 4.4911793e-04 
0.0000000e+00 0.0000000e+00 0.0000000e+00 
-2.3683364e-05 0.0000000e+00 4.4911793e-04 
0.0000000e+00 0.0000000e+00 0.0000000e+00 
-3.2826812e-05 0.0000000e+00 6.2754853e-04 
0.0000000e+00 0.0000000e+00 0.0000000e+00 
-3.2826812e-05 0.0000000e+00 6.2754853e-04 
0.0000000e+00 0.0000000e+00 0.0000000e+00 
-4.3384011e-05 0.0000000e+00 8.3758829e-04 
0.0000000e+00 0.0000000e+00 0.0000000e+00 
0.0000000e+00 0.0000000e+00 0.0000000e+00 
-4.3384011e-05 0.0000000e+00 8.3758829e-04 
0.0000000e+00 0.0000000e+00 0.0000000e+00 
0.0000000e+00 0.0000000e+00 0.0000000e+00 
-5.4084104e-05 0.0000000e+00 1.0552339e-03 
0.0000000e+00 0.0000000e+00 0.0000000e+00 
-5.4084104e-05 0.0000000e+00 1.0552339e-03 
0.0000000e+00 0.0000000e+00 0.0000000e+00 
-6.4322774e-05 0.0000000e+00 1.2682114e-03 
0.0000000e+00 0.0000000e+00 0.0000000e+00 
-6.4322774e-05 0.0000000e+00 1.2682114e-03 
0.0000000e+00 0.0000000e+00 0.0000000e+00 
0.0000000e+00 0.0000000e+00 0.0000000e+00 
-7.4134342e-05 0.0000000e+00 1.4768025e-03 
0.0000000e+00 0.0000000e+00 0.0000000e+00 
-7.4134342e-05 0.0000000e+00 1.4768025e-03 
0.0000000e+00 0.0000000e+00 0.0000000e+00 
-8.3527591e-05 0.0000000e+00 1.6810117e-03 
0.0000000e+00 0.0000000e+00 0.0000000e+00 
-8.3527591e-05 0.0000000e+00 1.6810117e-03 
0.0000000e+00 0.0000000e+00 0.0000000e+00 
-9.2505737e-05 0.0000000e+00 1.8807834e-03 
0.0000000e+00 0.0000000e+00 0.0000000e+00 
-9.2505737e-05 0.0000000e+00 1.8807834e-03 
0.0000000e+00 0.0000000e+00 0.0000000e+00 
-1.0109203e-04 0.0000000e+00 2.0762996e-03 
0.0000000e+00 0.0000000e+00 0.0000000e+00 
-1.0109203e-04 0.0000000e+00 2.0762996e-03 
0.0000000e+00 0.0000000e+00 0.0000000e+00 
0.0000000e+00 0.0000000e+00 0.0000000e+00 
-1.0930857e-04 0.0000000e+00 2.2677360e-03 
0.0000000e+00 0.0000000e+00 0.0000000e+00 
-1.0930857e-04 0.0000000e+00 2.2677360e-03 
0.0000000e+00 0.0000000e+00 0.0000000e+00 
-1.1715646e-04 0.0000000e+00 2.4550224e-03 
0.0000000e+00 0.0000000e+00 0.0000000e+00 
-1.1715646e-04 0.0000000e+00 2.4550224e-03 
0.0000000e+00 0.0000000e+00 0.0000000e+00 
-1.2463215e-04 0.0000000e+00 2.6380346e-03 
0.0000000e+00 0.0000000e+00 0.0000000e+00 
-1.2463215e-04 0.0000000e+00 2.6380346e-03 
0.0000000e+00 0.0000000e+00 0.0000000e+00 
0.0000000e+00 0.0000000e+00 0.0000000e+00 
-1.3175141e-04 0.0000000e+00 2.8168840e-03 
-1.3175141e-04 0.0000000e+00 2.8168840e-03 
0.0000000e+00 0.0000000e+00 0.0000000e+00 
0.0000000e+00 0.0000000e+00 0.0000000e+00 
-1.3853917e-04 0.0000000e+00 2.9917990e-03 
-1.3853917e-04 0.0000000e+00 2.9917990e-03 
0.0000000e+00 0.0000000e+00 0.0000000e+00 
0.0000000e+00 0.0000000e+00 0.0000000e+00 
-1.4500211e-04 0.0000000e+00 3.1627789e-03 
-1.4500211e-04 0.0000000e+00 3.1627789e-03 
0.0000000e+00 0.0000000e+00 0.0000000e+00 
0.0000000e+00 0.0000000e+00 0.0000000e+00 
-1.5113437e-04 0.0000000e+00 3.3296696e-03 
-1.5113437e-04 0.0000000e+00 3.3296696e-03 
0.0000000e+00 0.0000000e+00 0.0000000e+00 
0.0000000e+00 0.0000000e+00 0.0000000e+00 
-1.5695688e-04 0.0000000e+00 3.4926652e-03 
0.0000000e+00 0.0000000e+00 0.0000000e+00 
-1.5695688e-04 0.0000000e+00 3.4926652e-03 
0.0000000e+00 0.0000000e+00 0.0000000e+00 
-1.6250907e-04 0.0000000e+00 3.6522086e-03 
0.0000000e+00 0.0000000e+00 0.0000000e+00 
-1.6250907e-04 0.0000000e+00 3.6522086e-03 
0.0000000e+00 0.0000000e+00 0.0000000e+00 
-1.6780329e-04 0.0000000e+00 3.8083929e-03 
0.0000000e+00 0.0000000e+00 0.0000000e+00 
-1.6780329e-04 0.0000000e+00 3.8083929e-03 
0.0000000e+00 0.0000000e+00 0.0000000e+00 
0.0000000e+00 0.0000000e+00 0.0000000e+00 
-1.7283793e-04 0.0000000e+00 3.9611283e-03 
0.0000000e+00 0.0000000e+00 0.0000000e+00 
-1.7283793e-04 0.0000000e+00 3.9611283e-03 
0.0000000e+00 0.0000000e+00 0.0000000e+00 
-1.7763374e-04 0.0000000e+00 4.1106439e-03 
0.0000000e+00 0.0000000e+00 0.0000000e+00 
-1.7763374e-04 0.0000000e+00 4.1106439e-03 
0.0000000e+00 0.0000000e+00 0.0000000e+00 
0.0000000e+00 0.0000000e+00 0.0000000e+00 
-1.8222236e-04 0.0000000e+00 4.2573315e-03 
-1.8222236e-04 0.0000000e+00 4.2573315e-03 
0.0000000e+00 0.0000000e+00 0.0000000e+00 
0.0000000e+00 0.0000000e+00 0.0000000e+00 
-1.8661500e-04 0.0000000e+00 4.4012959e-03 
-1.8661500e-04 0.0000000e+00 4.4012959e-03 
0.0000000e+00 0.0000000e+00 0.0000000e+00 
0.0000000e+00 0.0000000e+00 0.0000000e+00 
-1.9080915e-04 0.0000000e+00 4.5424525e-03 
-1.9080915e-04 0.0000000e+00 4.5424525e-03 
0.0000000e+00 0.0000000e+00 0.0000000e+00 
0.0000000e+00 0.0000000e+00 0.0000000e+00 
-1.9481312e-04 0.0000000e+00 4.6808867e-03 
-1.9481312e-04 0.0000000e+00 4.6808867e-03 
0.0000000e+00 0.0000000e+00 0.0000000e+00 
0.0000000e+00 0.0000000e+00 0.0000000e+00 
-1.9864142e-04 0.0000000e+00 4.8167764e-03 
-1.9864142e-04 0.0000000e+00 4.8167764e-03 
0.0000000e+00 0.0000000e+00 0.0000000e+00 
0.0000000e+00 0.0000000e+00 0.0000000e+00 
-2.0229476e-04 0.0000000e+00 4.9500860e-03 
0.0000000e+00 0.0000000e+00 0.0000000e+00 
-2.0229476e-04 0.0000000e+00 4.9500860e-03 
0.0000000e+00 0.0000000e+00 0.0000000e+00 
3.7062848e-06 0.0000000e+00 2.8645300e-04 
-2.0576450e-04 0.0000000e+00 5.0806361e-03 
3.7062848e-06 0.0000000e+00 2.8645300e-04 
-2.0576450e-04 0.0000000e+00 5.0806361e-03 
1.0738296e-05 0.0000000e+00 6.0813348e-04 
-2.0904859e-04 0.0000000e+00 5.2083605e-03 
1.0738296e-05 0.0000000e+00 6.0813348e-04 
-2.0904859e-04 0.0000000e+00 5.2083605e-03 
1.9133316e-05 0.0000000e+00 9.3380158e-04 
1.9133316e-05 0.0000000e+00 9.3380158e-04 
-2.1214959e-04 0.0000000e+00 5.3332583e-03 
-2.1214959e-04 0.0000000e+00 5.3332583e-03 
2.7896769e-05 0.0000000e+00 1.2514626e-03 
2.7896769e-05 0.0000000e+00 1.2514626e-03 
-2.1506240e-04 0.0000000e+00 5.4551912e-03 
-2.1506240e-04 0.0000000e+00 5.4551912e-03 
3.7006248e-05 0.0000000e+00 1.5611443e-03 
3.7006248e-05 0.0000000e+00 1.5611443e-03 
-2.1777820e-04 0.0000000e+00 5.5739566e-03 
-2.1777820e-04 0.0000000e+00 5.5739566e-03 
4.6450136e-05 0.0000000e+00 1.8625989e-03 
4.6450136e-05 0.0000000e+00 1.8625989e-03 
-2.2029508e-04 0.0000000e+00 5.6894671e-03 
-2.2029508e-04 0.0000000e+00 5.6894671e-03 
5.6204557e-05 0.0000000e+00 2.1557757e-03 
5.6204557e-05 0.0000000e+00 2.1557757e-03 
-2.2261069e-04 0.0000000e+00 5.8016220e-03 
-2.2261069e-04 0.0000000e+00 5.8016220e-03 
6.6236475e-05 0.0000000e+00 2.4408881e-03 
6.6236475e-05 0.0000000e+00 2.4408881e-03 
-2.2472242e-04 0.0000000e+00 5.9102958e-03 
7.6512062e-05 0.0000000e+00 2.7181592e-03 
-2.2472242e-04 0.0000000e+00 5.9102958e-03 
7.6512062e-05 0.0000000e+00 2.7181592e-03 
8.7001677e-05 0.0000000e+00 2.9877414e-03 
-2.2663363e-04 0.0000000e+00 6.0154559e-03 
8.7001677e-05 0.0000000e+00 2.9877414e-03 
-2.2663363e-04 0.0000000e+00 6.0154559e-03 
9.7678849e-05 0.0000000e+00 3.2497640e-03 
-2.2834393e-04 0.0000000e+00 6.1170178e-03 
9.7678849e-05 0.0000000e+00 3.2497640e-03 
-2.2834393e-04 0.0000000e+00 6.1170178e-03 
1.0851761e-04 0.0000000e+00 3.5044053e-03 
1.0851761e-04 0.0000000e+00 3.5044053e-03 
-2.2984755e-04 0.0000000e+00 6.2147912e-03 
-2.2984755e-04 0.0000000e+00 6.2147912e-03 
1.1949533e-04 0.0000000e+00 3.7517275e-03 
1.1949533e-04 0.0000000e+00 3.7517275e-03 
-2.3115011e-04 0.0000000e+00 6.3087760e-03 
-2.3115011e-04 0.0000000e+00 6.3087760e-03 
1.3059169e-04 0.0000000e+00 3.9916611e-03 
1.3059169e-04 0.0000000e+00 3.9916611e-03 
-2.3226651e-04 0.0000000e+00 6.3991502e-03 
-2.3226651e-04 0.0000000e+00 6.3991502e-03 
1.4178546e-04 0.0000000e+00 4.2242058e-03 
1.4178546e-04 0.0000000e+00 4.2242058e-03 
-2.3320161e-04 0.0000000e+00 6.4859194e-03 
-2.3320161e-04 0.0000000e+00 6.4859194e-03 
1.5305504e-04 0.0000000e+00 4.4493726e-03 
1.5305504e-04 0.0000000e+00 4.4493726e-03 
-2.3395239e-04 0.0000000e+00 6.5689268e-03 
-2.3395239e-04 0.0000000e+00 6.5689268e-03 
1.6437951e-04 0.0000000e+00 4.6670568e-03 
1.6437951e-04 0.0000000e+00 4.6670568e-03 
-2.3452617e-04 0.0000000e+00 6.6482080e-03 
-2.3452617e-04 0.0000000e+00 6.6482080e-03 
1.7573699e-04 0.0000000e+00 4.8770656e-03 
1.7573699e-04 0.0000000e+00 4.8770656e-03 
-2.3493950e-04 0.0000000e+00 6.7240044e-03 
-2.3493950e-04 0.0000000e+00 6.7240044e-03 
1.8710477e-04 0.0000000e+00 5.0793536e-03 
1.8710477e-04 0.0000000e+00 5.0793536e-03 
-2.3520033e-04 0.0000000e+00 6.7963984e-03 
1.9845993e-04 0.0000000e+00 5.2739638e-03 
-2.3520033e-04 0.0000000e+00 6.7963984e-03 
1.9845993e-04 0.0000000e+00 5.2739638e-03 
-2.3530735e-04 0.0000000e+00 6.8652617e-03 
2.0977955e-04 0.0000000e+00 5.4609183e-03 
-2.3530735e-04 0.0000000e+00 6.8652617e-03 
2.0977955e-04 0.0000000e+00 5.4609183e-03 
2.2104172e-04 0.0000000e+00 5.6403003e-03 
-2.3526578e-04 0.0000000e+00 6.9306048e-03 
2.2104172e-04 0.0000000e+00 5.6403003e-03 
-2.3526578e-04 0.0000000e+00 6.9306048e-03 
2.3222637e-04 0.0000000e+00 5.8122906e-03 
2.3222637e-04 0.0000000e+00 5.8122906e-03 
-2.3508855e-04 0.0000000e+00 6.9926278e-03 
-2.3508855e-04 0.0000000e+00 6.9926278e-03 
2.4331500e-04 0.0000000e+00 5.9770556e-03 
2.4331500e-04 0.0000000e+00 5.9770556e-03 
-2.3477904e-04 0.0000000e+00 7.0513163e-03 
-2.3477904e-04 0.0000000e+00 7.0513163e-03 
2.5429178e-04 0.0000000e+00 6.1348754e-03 
2.5429178e-04 0.0000000e+00 6.1348754e-03 
-2.3433281e-04 0.0000000e+00 7.1064454e-03 
-2.3433281e-04 0.0000000e+00 7.1064454e-03 
2.6515033e-04 0.0000000e+00 6.2863764e-03 
2.6515033e-04 0.0000000e+00 6.2863764e-03 
-2.3375431e-04 0.0000000e+00 7.1580019e-03 
-2.3375431e-04 0.0000000e+00 7.1580019e-03 
2.7588605e-04 0.0000000e+00 6.4320538e-03 
2.7588605e-04 0.0000000e+00 6.4320538e-03 
-2.3305352e-04 0.0000000e+00 7.2061292e-03 
-2.3305352e-04 0.0000000e+00 7.2061292e-03 
2.8648847e-04 0.0000000e+00 6.5720153e-03 
2.8648847e-04 0.0000000e+00 6.5720153e-03 
-2.3223009e-04 0.0000000e+00 7.2506897e-03 
-2.3223009e-04 0.0000000e+00 7.2506897e-03 
2.9695086e-04 0.0000000e+00 6.7064918e-03 
2.9695086e-04 0.0000000e+00 6.7064918e-03 
-2.3127773e-04 0.0000000e+00 7.2913441e-03 
-2.3127773e-04 0.0000000e+00 7.2913441e-03 
3.0727711e-04 0.0000000e+00 6.8360397e-03 
3.0727711e-04 0.0000000e+00 6.8360397e-03 
-2.3020272e-04 0.0000000e+00 7.3281115e-03 
-2.3020272e-04 0.0000000e+00 7.3281115e-03 
3.1746835e-04 0.0000000e+00 6.9610051e-03 
3.1746835e-04 0.0000000e+00 6.9610051e-03 
-2.2901835e-04 0.0000000e+00 7.3612504e-03 
-2.2901835e-04 0.0000000e+00 7.3612504e-03 
3.2751770e-04 0.0000000e+00 7.0814331e-03 
3.2751770e-04 0.0000000e+00 7.0814331e-03 
-2.2772489e-04 0.0000000e+00 7.3905971e-03 
-2.2772489e-04 0.0000000e+00 7.3905971e-03 
3.3741772e-04 0.0000000e+00 7.1973486e-03 
3.3741772e-04 0.0000000e+00 7.1973486e-03 
-2.2631521e-04 0.0000000e+00 7.4156850e-03 
-2.2631521e-04 0.0000000e+00 7.4156850e-03 
3.4715776e-04 0.0000000e+00 7.3086905e-03 
3.4715776e-04 0.0000000e+00 7.3086905e-03 
-2.2479429e-04 0.0000000e+00 7.4364421e-03 
3.5672518e-04 0.0000000e+00 7.4153352e-03 
-2.2479429e-04 0.0000000e+00 7.4364421e-03 
3.5672518e-04 0.0000000e+00 7.4153352e-03 
3.6610987e-04 0.0000000e+00 7.5172450e-03 
-2.2317523e-04 0.0000000e+00 7.4531271e-03 
3.6610987e-04 0.0000000e+00 7.5172450e-03 
-2.2317523e-04 0.0000000e+00 7.4531271e-03 
3.7529818e-04 0.0000000e+00 7.6143074e-03 
-2.2146156e-04 0.0000000e+00 7.4656211e-03 
3.7529818e-04 0.0000000e+00 7.6143074e-03 
-2.2146156e-04 0.0000000e+00 7.4656211e-03 
3.8426415e-04 0.0000000e+00 7.7061399e-03 
3.8426415e-04 0.0000000e+00 7.7061399e-03 
-2.1965020e-04 0.0000000e+00 7.4734530e-03 
-2.1965020e-04 0.0000000e+00 7.4734530e-03 
3.9298492e-04 0.0000000e+00 7.7924716e-03 
3.9298492e-04 0.0000000e+00 7.7924716e-03 
-2.1774855e-04 0.0000000e+00 7.4765907e-03 
-2.1774855e-04 0.0000000e+00 7.4765907e-03 
4.0145080e-04 0.0000000e+00 7.8733396e-03 
4.0145080e-04 0.0000000e+00 7.8733396e-03 
-2.1577118e-04 0.0000000e+00 7.4754236e-03 
-2.1577118e-04 0.0000000e+00 7.4754236e-03 
4.0965006e-04 0.0000000e+00 7.9487500e-03 
4.0965006e-04 0.0000000e+00 7.9487500e-03 
-2.1372430e-04 0.0000000e+00 7.4699082e-03 
-2.1372430e-04 0.0000000e+00 7.4699082e-03 
4.1756145e-04 0.0000000e+00 8.0185219e-03 
4.1756145e-04 0.0000000e+00 8.0185219e-03 
-2.1160919e-04 0.0000000e+00 7.4596232e-03 
-2.1160919e-04 0.0000000e+00 7.4596232e-03 
4.2515947e-04 0.0000000e+00 8.0824090e-03 
4.2515947e-04 0.0000000e+00 8.0824090e-03 
-2.0943380e-04 0.0000000e+00 7.4445340e-03 
-2.0943380e-04 0.0000000e+00 7.4445340e-03 
4.3242404e-04 0.0000000e+00 8.1402879e-03 
4.3242404e-04 0.0000000e+00 8.1402879e-03 
-2.0720989e-04 0.0000000e+00 7.4249668e-03 
-2.0720989e-04 0.0000000e+00 7.4249668e-03 
4.3935317e-04 0.0000000e+00 8.1923675e-03 
4.3935317e-04 0.0000000e+00 8.1923675e-03 
-2.0494527e-04 0.0000000e+00 7.4009651e-03 
-2.0494527e-04 0.0000000e+00 7.4009651e-03 
4.4594987e-04 0.0000000e+00 8.2389173e-03 
4.4594987e-04 0.0000000e+00 8.2389173e-03 
-2.0264557e-04 0.0000000e+00 7.3722889e-03 
-2.0264557e-04 0.0000000e+00 7.3722889e-03 
4.5219781e-04 0.0000000e+00 8.2798622e-03 
4.5219781e-04 0.0000000e+00 8.2798622e-03 
-2.0031893e-04 0.0000000e+00 7.3389841e-03 
-2.0031893e-04 0.0000000e+00 7.3389841e-03 
4.5807711e-04 0.0000000e+00 8.3150802e-03 
4.5807711e-04 0.0000000e+00 8.3150802e-03 
-1.9797412e-04 0.0000000e+00 7.3013536e-03 
-1.9797412e-04 0.0000000e+00 7.3013536e-03 
4.6359105e-04 0.0000000e+00 8.3448168e-03 
4.6359105e-04 0.0000000e+00 8.3448168e-03 
-1.9561840e-04 0.0000000e+00 7.2595691e-03 
-1.9561840e-04 0.0000000e+00 7.2595691e-03 
4.6875742e-04 0.0000000e+00 8.3695037e-03 
4.6875742e-04 0.0000000e+00 8.3695037e-03 
-1.9325819e-04 0.0000000e+00 7.2136845e-03 
-1.9325819e-04 0.0000000e+00 7.2136845e-03 
4.7356672e-04 0.0000000e+00 8.3893737e-03 
4.7356672e-04 0.0000000e+00 8.3893737e-03 
-1.9089246e-04 0.0000000e+00 7.1636345e-03 
-1.9089246e-04 0.0000000e+00 7.1636345e-03 
4.7890898e-04 0.0000000e+00 8.4073012e-03 
4.7890898e-04 0.0000000e+00 8.4073012e-03 
-1.8806316e-04 0.0000000e+00 7.0984550e-03 
-1.8806316e-04 0.0000000e+00 7.0984550e-03 
4.8474966e-04 0.0000000e+00 8.4211613e-03 
4.8474966e-04 0.0000000e+00 8.4211613e-03 
-1.8469143e-04 0.0000000e+00 7.0135980e-03 
-1.8469143e-04 0.0000000e+00 7.0135980e-03 
4.9106834e-04 0.0000000e+00 8.4287750e-03 
4.9106834e-04 0.0000000e+00 8.4287750e-03 
-1.8072810e-04 0.0000000e+00 6.9048207e-03 
-1.8072810e-04 0.0000000e+00 6.9048207e-03 
4.9701929e-04 0.0000000e+00 8.4277820e-03 
4.9701929e-04 0.0000000e+00 8.4277820e-03 
-1.7682206e-04 0.0000000e+00 6.7878159e-03 
-1.7682206e-04 0.0000000e+00 6.7878159e-03 
5.0230253e-04 0.0000000e+00 8.4184817e-03 
5.0230253e-04 0.0000000e+00 8.4184817e-03 
-1.7299169e-04 0.0000000e+00 6.6622506e-03 
-1.7299169e-04 0.0000000e+00 6.6622506e-03 
5.0698598e-04 0.0000000e+00 8.4018808e-03 
5.0698598e-04 0.0000000e+00 8.4018808e-03 
-1.6923724e-04 0.0000000e+00 6.5294849e-03 
-1.6923724e-04 0.0000000e+00 6.5294849e-03 
5.1116037e-04 0.0000000e+00 8.3791966e-03 
5.1116037e-04 0.0000000e+00 8.3791966e-03 
-1.6553471e-04 0.0000000e+00 6.3923237e-03 
-1.6553471e-04 0.0000000e+00 6.3923237e-03 
5.1490951e-04 0.0000000e+00 8.3515095e-03 
5.1490951e-04 0.0000000e+00 8.3515095e-03 
-1.6187577e-04 0.0000000e+00 6.2517608e-03 
-1.6187577e-04 0.0000000e+00 6.2517608e-03 
5.1828539e-04 0.0000000e+00 8.3194881e-03 
5.1828539e-04 0.0000000e+00 8.3194881e-03 
-1.5827102e-04 0.0000000e+00 6.1072166e-03 
-1.5827102e-04 0.0000000e+00 6.1072166e-03 
5.2122190e-04 0.0000000e+00 8.2824312e-03 
5.2122190e-04 0.0000000e+00 8.2824312e-03 
-1.5470752e-04 0.0000000e+00 5.9597950e-03 
-1.5470752e-04 0.0000000e+00 5.9597950e-03 
5.2357520e-04 0.0000000e+00 8.2387920e-03 