# vtk DataFile Version 4.0
vtk output
ASCII
DATASET UNSTRUCTURED_GRID
POINTS 824 float
-6.4148600e-05 1.0000000e-02 -4.4525366e-03 
-1.0680180e-04 1.0000000e-02 -2.8088474e-03 
3.4513260e-04 1.0000000e-02 -6.0450544e-03 
1.3803532e-03 1.0000000e-02 -7.3230534e-03 
6.5829700e-05 1.0000000e-02 -1.1736922e-03 
2.7142144e-03 1.0000000e-02 -8.2851896e-03 
5.0392030e-04 1.0000000e-02 6.5784910e-04 
4.1780764e-03 1.0000000e-02 -9.0342357e-03 
1.1628646e-03 1.0000000e-02 2.4220088e-03 
5.7070961e-03 1.0000000e-02 -9.6390187e-03 
2.0046218e-03 1.0000000e-02 4.1066196e-03 
7.2731595e-03 1.0000000e-02 -1.0140047e-02 
-6.4148600e-05 0.0000000e+00 -4.4525366e-03 
-1.0680180e-04 0.0000000e+00 -2.8088474e-03 
3.4513260e-04 0.0000000e+00 -6.0450544e-03 
1.3803532e-03 0.0000000e+00 -7.3230534e-03 
6.5829700e-05 0.0000000e+00 -1.1736922e-03 
2.9952540e-03 1.0000000e-02 5.7082181e-03 
8.8622628e-03 1.0000000e-02 -1.0562311e-02 
2.7142144e-03 0.0000000e+00 -8.2851896e-03 
5.0392030e-04 0.0000000e+00 6.5784910e-04 
4.1780764e-03 0.0000000e+00 -9.0342357e-03 
1.1628646e-03 0.0000000e+00 2.4220088e-03 
1.0466628e-02 1.0000000e-02 -1.0922252e-02 
4.1067238e-03 1.0000000e-02 7.2284501e-03 
5.7070961e-03 0.0000000e+00 -9.6390187e-03 
2.0046218e-03 0.0000000e+00 4.1066196e-03 
7.2731595e-03 0.0000000e+00 -1.0140047e-02 
1.2081579e-02 1.0000000e-02 -1.1231240e-02 
5.3166988e-03 1.0000000e-02 8.6715129e-03 
2.9952540e-03 0.0000000e+00 5.7082181e-03 
8.8622628e-03 0.0000000e+00 -1.0562311e-02 
1.3704120e-02 1.0000000e-02 -1.1497501e-02 
1.0466628e-02 0.0000000e+00 -1.0922252e-02 
4.1067238e-03 0.0000000e+00 7.2284501e-03 
6.6076374e-03 1.0000000e-02 1.0042624e-02 
1.5332244e-02 1.0000000e-02 -1.1727173e-02 
1.2081579e-02 0.0000000e+00 -1.1231240e-02 
5.3166988e-03 0.0000000e+00 8.6715129e-03 
7.9658343e-03 1.0000000e-02 1.1347144e-02 
1.3704120e-02 0.0000000e+00 -1.1497501e-02 
1.6964543e-02 1.0000000e-02 -1.1925002e-02 
6.6076374e-03 0.0000000e+00 1.0042624e-02 
9.3804686e-03 1.0000000e-02 1.2590236e-02 
1.5332244e-02 0.0000000e+00 -1.1727173e-02 
1.8600004e-02 1.0000000e-02 -1.2094716e-02 
7.9658343e-03 0.0000000e+00 1.1347144e-02 
1.6964543e-02 0.0000000e+00 -1.1925002e-02 
1.0843002e-02 1.0000000e-02 1.3776601e-02 
2.0237876e-02 1.0000000e-02 -1.2239318e-02 
9.3804686e-03 0.0000000e+00 1.2590236e-02 
1.8600004e-02 0.0000000e+00 -1.2094716e-02 
1.2346566e-02 1.0000000e-02 1.4910517e-02 
2.1877591e-02 1.0000000e-02 -1.2361246e-02 
1.0843002e-02 0.0000000e+00 1.3776601e-02 
2.0237876e-02 0.0000000e+00 -1.2239318e-02 
1.3885623e-02 1.0000000e-02 1.5995768e-02 
2.3518711e-02 1.0000000e-02 -1.2462540e-02 
1.2346566e-02 0.0000000e+00 1.4910517e-02 
2.1877591e-02 0.0000000e+00 -1.2361246e-02 
2.5160890e-02 1.0000000e-02 -1.2544903e-02 
1.5455654e-02 1.0000000e-02 1.7035707e-02 
1.3885623e-02 0.0000000e+00 1.5995768e-02 
2.3518711e-02 0.0000000e+00 -1.2462540e-02 
2.6803852e-02 1.0000000e-02 -1.2609772e-02 
1.7052912e-02 1.0000000e-02 1.8033321e-02 
2.5160890e-02 0.0000000e+00 -1.2544903e-02 
1.5455654e-02 0.0000000e+00 1.7035707e-02 
2.8447376e-02 1.0000000e-02 -1.2658389e-02 
2.6803852e-02 0.0000000e+00 -1.2609772e-02 
1.7052912e-02 0.0000000e+00 1.8033321e-02 
1.8674284e-02 1.0000000e-02 1.8991246e-02 
3.0091279e-02 1.0000000e-02 -1.2691814e-02 
2.8447376e-02 0.0000000e+00 -1.2658389e-02 
1.8674284e-02 0.0000000e+00 1.8991246e-02 
2.0317149e-02 1.0000000e-02 1.9911822e-02 
3.0091279e-02 0.0000000e+00 -1.2691814e-02 
3.1735410e-02 1.0000000e-02 -1.2710971e-02 
2.0317149e-02 0.0000000e+00 1.9911822e-02 
2.1979295e-02 1.0000000e-02 2.0797113e-02 
3.1735410e-02 0.0000000e+00 -1.2710971e-02 
3.3379643e-02 1.0000000e-02 -1.2716676e-02 
2.1979295e-02 0.0000000e+00 2.0797113e-02 
2.3658832e-02 1.0000000e-02 2.1648949e-02 
3.3379643e-02 0.0000000e+00 -1.2716676e-02 
3.5023871e-02 1.0000000e-02 -1.2709629e-02 
2.3658832e-02 0.0000000e+00 2.1648949e-02 
2.5354100e-02 1.0000000e-02 2.2469029e-02 
3.5023871e-02 0.0000000e+00 -1.2709629e-02 
3.6668001e-02 1.0000000e-02 -1.2690457e-02 
2.5354100e-02 0.0000000e+00 2.2469029e-02 
2.7063712e-02 1.0000000e-02 2.3258772e-02 
3.6668001e-02 0.0000000e+00 -1.2690457e-02 
3.8312016e-02 1.0000000e-02 -1.2663038e-02 
2.7063712e-02 0.0000000e+00 2.3258772e-02 
3.8312016e-02 0.0000000e+00 -1.2663038e-02 
2.8786417e-02 1.0000000e-02 2.4019532e-02 
3.9956032e-02 1.0000000e-02 -1.2635752e-02 
2.8786417e-02 0.0000000e+00 2.4019532e-02 
3.9956032e-02 0.0000000e+00 -1.2635752e-02 
3.0521135e-02 1.0000000e-02 2.4752486e-02 
4.1600048e-02 1.0000000e-02 -1.2608467e-02 
3.0521135e-02 0.0000000e+00 2.4752486e-02 
4.1600048e-02 0.0000000e+00 -1.2608467e-02 
3.2266919e-02 1.0000000e-02 2.5458676e-02 
4.3299814e-02 1.0000000e-02 -1.2580255e-02 
3.2266919e-02 0.0000000e+00 2.5458676e-02 
4.3299814e-02 0.0000000e+00 -1.2580255e-02 
3.4022902e-02 1.0000000e-02 2.6139111e-02 
4.5339533e-02 1.0000000e-02 -1.2546402e-02 
3.4022902e-02 0.0000000e+00 2.6139111e-02 
4.5339533e-02 0.0000000e+00 -1.2546402e-02 
3.5788340e-02 1.0000000e-02 2.6794623e-02 
4.7787196e-02 1.0000000e-02 -1.2505778e-02 
3.5788340e-02 0.0000000e+00 2.6794623e-02 
3.7562554e-02 1.0000000e-02 2.7425996e-02 
4.7787196e-02 0.0000000e+00 -1.2505778e-02 
3.7562554e-02 0.0000000e+00 2.7425996e-02 
3.9344928e-02 1.0000000e-02 2.8033950e-02 
5.0379113e-02 1.0000000e-02 -1.2462760e-02 
3.9344928e-02 0.0000000e+00 2.8033950e-02 
5.0379113e-02 0.0000000e+00 -1.2462760e-02 
4.1134916e-02 1.0000000e-02 2.8619109e-02 
5.2971029e-02 1.0000000e-02 -1.2419741e-02 
4.1134916e-02 0.0000000e+00 2.8619109e-02 
5.2971029e-02 0.0000000e+00 -1.2419741e-02 
4.2932026e-02 1.0000000e-02 2.9182016e-02 
4.2932026e-02 0.0000000e+00 2.9182016e-02 
5.5562946e-02 1.0000000e-02 -1.2376723e-02 
4.5339682e-02 1.0000000e-02 2.9899231e-02 
5.5562946e-02 0.0000000e+00 -1.2376723e-02 
4.5339682e-02 0.0000000e+00 2.9899231e-02 
5.8154863e-02 1.0000000e-02 -1.2333705e-02 
4.7758221e-02 1.0000000e-02 3.0578844e-02 
5.8154863e-02 0.0000000e+00 -1.2333705e-02 
4.7758221e-02 0.0000000e+00 3.0578844e-02 
6.0746779e-02 1.0000000e-02 -1.2290686e-02 
5.0186760e-02 1.0000000e-02 3.1221807e-02 
6.0746779e-02 0.0000000e+00 -1.2290686e-02 
5.0186760e-02 0.0000000e+00 3.1221807e-02 
6.3338696e-02 1.0000000e-02 -1.2247668e-02 
5.2624513e-02 1.0000000e-02 3.1828903e-02 
6.3338696e-02 0.0000000e+00 -1.2247668e-02 
5.2624513e-02 0.0000000e+00 3.1828903e-02 
5.5070762e-02 1.0000000e-02 3.2400804e-02 
6.5930613e-02 1.0000000e-02 -1.2204650e-02 
5.5070762e-02 0.0000000e+00 3.2400804e-02 
6.5930613e-02 0.0000000e+00 -1.2204650e-02 
5.7524847e-02 1.0000000e-02 3.2938082e-02 
6.8522529e-02 1.0000000e-02 -1.2161631e-02 
5.7524847e-02 0.0000000e+00 3.2938082e-02 
6.8522529e-02 0.0000000e+00 -1.2161631e-02 
5.9986169e-02 1.0000000e-02 3.3441170e-02 
7.1114446e-02 1.0000000e-02 -1.2118613e-02 
5.9986169e-02 0.0000000e+00 3.3441170e-02 
7.1114446e-02 0.0000000e+00 -1.2118613e-02 
6.2454163e-02 1.0000000e-02 3.3910436e-02 
6.2454163e-02 0.0000000e+00 3.3910436e-02 
7.3706362e-02 1.0000000e-02 -1.2075595e-02 
7.3706362e-02 0.0000000e+00 -1.2075595e-02 
6.4928303e-02 1.0000000e-02 3.4346139e-02 
6.4928303e-02 0.0000000e+00 3.4346139e-02 
7.6298279e-02 1.0000000e-02 -1.2032577e-02 
7.6298279e-02 0.0000000e+00 -1.2032577e-02 
6.7408092e-02 1.0000000e-02 3.4748446e-02 
6.7408092e-02 0.0000000e+00 3.4748446e-02 
7.8890196e-02 1.0000000e-02 -1.1989558e-02 
7.8890196e-02 0.0000000e+00 -1.1989558e-02 
6.9893057e-02 1.0000000e-02 3.5117436e-02 
6.9893057e-02 0.0000000e+00 3.5117436e-02 
8.1482112e-02 1.0000000e-02 -1.1946540e-02 
8.1482112e-02 0.0000000e+00 -1.1946540e-02 
7.2382742e-02 1.0000000e-02 3.5453098e-02 
7.2382742e-02 0.0000000e+00 3.5453098e-02 
8.4074029e-02 1.0000000e-02 -1.1903522e-02 
7.4876707e-02 1.0000000e-02 3.5755332e-02 
8.4074029e-02 0.0000000e+00 -1.1903522e-02 
7.4876707e-02 0.0000000e+00 3.5755332e-02 
8.6665946e-02 1.0000000e-02 -1.1860503e-02 
7.7374516e-02 1.0000000e-02 3.6023948e-02 
8.6665946e-02 0.0000000e+00 -1.1860503e-02 
7.7374516e-02 0.0000000e+00 3.6023948e-02 
8.9257862e-02 1.0000000e-02 -1.1817485e-02 
7.9875738e-02 1.0000000e-02 3.6258665e-02 
8.9257862e-02 0.0000000e+00 -1.1817485e-02 
7.9875738e-02 0.0000000e+00 3.6258665e-02 
8.2379940e-02 1.0000000e-02 3.6459105e-02 
9.1849779e-02 1.0000000e-02 -1.1774467e-02 
8.2379940e-02 0.0000000e+00 3.6459105e-02 
9.1849779e-02 0.0000000e+00 -1.1774467e-02 
8.4886681e-02 1.0000000e-02 3.6624786e-02 
9.4441696e-02 1.0000000e-02 -1.1731448e-02 
8.4886681e-02 0.0000000e+00 3.6624786e-02 
9.4441696e-02 0.0000000e+00 -1.1731448e-02 
8.7395510e-02 1.0000000e-02 3.6755108e-02 
8.7395510e-02 0.0000000e+00 3.6755108e-02 
9.7033612e-02 1.0000000e-02 -1.1688430e-02 
9.7033612e-02 0.0000000e+00 -1.1688430e-02 
8.9905951e-02 1.0000000e-02 3.6849401e-02 
8.9905951e-02 0.0000000e+00 3.6849401e-02 
9.9625529e-02 1.0000000e-02 -1.1645412e-02 
9.9625529e-02 0.0000000e+00 -1.1645412e-02 
9.2417505e-02 1.0000000e-02 3.6906832e-02 
9.2417505e-02 0.0000000e+00 3.6906832e-02 
1.0221745e-01 1.0000000e-02 -1.1602393e-02 
1.0221745e-01 0.0000000e+00 -1.1602393e-02 
9.4929640e-02 1.0000000e-02 3.6926425e-02 
9.4929640e-02 0.0000000e+00 3.6926425e-02 
1.0480936e-01 1.0000000e-02 -1.1559375e-02 
1.0480936e-01 0.0000000e+00 -1.1559375e-02 
9.7441776e-02 1.0000000e-02 3.6907077e-02 
9.7441776e-02 0.0000000e+00 3.6907077e-02 
1.0740128e-01 1.0000000e-02 -1.1516357e-02 
1.0740128e-01 0.0000000e+00 -1.1516357e-02 
9.9953281e-02 1.0000000e-02 3.6847529e-02 
9.9953281e-02 0.0000000e+00 3.6847529e-02 
1.0999320e-01 1.0000000e-02 -1.1473339e-02 
1.0246345e-01 1.0000000e-02 3.6746314e-02 
1.0999320e-01 0.0000000e+00 -1.1473339e-02 
1.0246345e-01 0.0000000e+00 3.6746314e-02 
1.0497150e-01 1.0000000e-02 3.6601738e-02 
1.1258511e-01 1.0000000e-02 -1.1430320e-02 
1.0497150e-01 0.0000000e+00 3.6601738e-02 
1.1258511e-01 0.0000000e+00 -1.1430320e-02 
1.0747666e-01 1.0000000e-02 3.6413638e-02 
1.1517703e-01 1.0000000e-02 -1.1387302e-02 
1.0747666e-01 0.0000000e+00 3.6413638e-02 
[...]
POINT_DATA 824
FIELD FieldData 2
DISPLACEMENT 3 824  float
0.0000000e+00 0.0000000e+00 0.0000000e+00 
0.0000000e+00 0.0000000e+00 0.0000000e+00 
0.0000000e+00 0.0000000e+00 0.0000000e+00 
0.0000000e+00 0.0000000e+00 0.0000000e+00 
0.0000000e+00 0.0000000e+00 0.0000000e+00 
0.0000000e+00 0.0000000e+00 0.0000000e+00 
0.0000000e+00 0.0000000e+00 0.0000000e+00 
0.0000000e+00 0.0000000e+00 0.0000000e+00 
0.0000000e+00 0.0000000e+00 0.0000000e+00 
0.0000000e+00 0.0000000e+00 0.0000000e+00 
0.0000000e+00 0.0000000e+00 0.0000000e+00 
0.0000000e+00 0.0000000e+00 0.0000000e+00 
0.0000000e+00 0.0000000e+00 0.0000000e+00 
0.0000000e+00 0.0000000e+00 0.0000000e+00 
0.0000000e+00 0.0000000e+00 0.0000000e+00 
0.0000000e+00 0.0000000e+00 0.0000000e+00 
0.0000000e+00 0.0000000e+00 0.0000000e+00 
0.0000000e+00 0.0000000e+00 0.0000000e+00 
0.0000000e+00 0.0000000e+00 0.0000000e+00 
0.0000000e+00 0.0000000e+00 0.0000000e+00 
0.0000000e+00 0.0000000e+00 0.0000000e+00 
0.0000000e+00 0.0000000e+00 0.0000000e+00 
0.0000000e+00 0.0000000e+00 0.0000000e+00 
0.0000000e+00 0.0000000e+00 0.0000000e+00 
0.0000000e+00 0.0000000e+00 0.0000000e+00 
0.0000000e+00 0.0000000e+00 0.0000000e+00 
0.0000000e+00 0.0000000e+00 0.0000000e+00 
0.0000000e+00 0.0000000e+00 0.0000000e+00 
0.0000000e+00 0.0000000e+00 0.0000000e+00 
0.0000000e+00 0.0000000e+00 0.0000000e+00 
0.0000000e+00 0.0000000e+00 0.0000000e+00 
0.0000000e+00 0.0000000e+00 0.0000000e+00 
0.0000000e+00 0.0000000e+00 0.0000000e+00 
0.0000000e+00 0.0000000e+00 0.0000000e+00 
0.0000000e+00 0.0000000e+00 0.0000000e+00 
0.0000000e+00 0.0000000e+00 0.0000000e+00 
0.0000000e+00 0.0000000e+00 0.0000000e+00 
0.0000000e+00 0.0000000e+00 0.0000000e+00 
0.0000000e+00 0.0000000e+00 0.0000000e+00 
0.0000000e+00 0.0000000e+00 0.0000000e+00 
0.0000000e+00 0.0000000e+00 0.0000000e+00 
0.0000000e+00 0.0000000e+00 0.0000000e+00 
0.0000000e+00 0.0000000e+00 0.0000000e+00 
0.0000000e+00 0.0000000e+00 0.0000000e+00 
0.0000000e+00 0.0000000e+00 0.0000000e+00 
0.0000000e+00 0.0000000e+00 0.0000000e+00 
0.0000000e+00 0.0000000e+00 0.0000000e+00 
0.0000000e+00 0.0000000e+00 0.0000000e+00 
0.0000000e+00 0.0000000e+00 0.0000000e+00 
0.0000000e+00 0.0000000e+00 0.0000000e+00 
0.0000000e+00 0.0000000e+00 0.0000000e+00 
0.0000000e+00 0.0000000e+00 0.0000000e+00 
0.0000000e+00 0.0000000e+00 0.0000000e+00 
0.0000000e+00 0.0000000e+00 0.0000000e+00 
0.0000000e+00 0.0000000e+00 0.0000000e+00 
0.0000000e+00 0.0000000e+00 0.0000000e+00 
0.0000000e+00 0.0000000e+00 0.0000000e+00 
0.0000000e+00 0.0000000e+00 0.0000000e+00 
0.0000000e+00 0.0000000e+00 0.0000000e+00 
0.0000000e+00 0.0000000e+00 0.0000000e+00 
0.0000000e+00 0.0000000e+00 0.0000000e+00 
0.0000000e+00 0.0000000e+00 0.0000000e+00 
0.0000000e+00 0.0000000e+00 0.0000000e+00 
0.0000000e+00 0.0000000e+00 0.0000000e+00 
0.0000000e+00 0.0000000e+00 0.0000000e+00 
0.0000000e+00 0.0000000e+00 0.0000000e+00 
0.0000000e+00 0.0000000e+00 0.0000000e+00 
0.0000000e+00 0.0000000e+00 0.0000000e+00 
0.0000000e+00 0.0000000e+00 0.0000000e+00 
0.0000000e+00 0.0000000e+00 0.0000000e+00 
0.0000000e+00 0.0000000e+00 0.0000000e+00 
0.0000000e+00 0.0000000e+00 0.0000000e+00 
0.0000000e+00 0.0000000e+00 0.0000000e+00 
0.0000000e+00 0.0000000e+00 0.0000000e+00 
0.0000000e+00 0.0000000e+00 0.0000000e+00 
0.0000000e+00 0.0000000e+00 0.0000000e+00 
0.0000000e+00 0.0000000e+00 0.0000000e+00 
0.0000000e+00 0.0000000e+00 0.0000000e+00 
0.0000000e+00 0.0000000e+00 0.0000000e+00 
0.0000000e+00 0.0000000e+00 0.0000000e+00 
0.0000000e+00 0.0000000e+00 0.0000000e+00 
0.0000000e+00 0.0000000e+00 0.0000000e+00 
0.0000000e+00 0.0000000e+00 0.0000000e+00 
0.0000000e+00 0.0000000e+00 0.0000000e+00 
0.0000000e+00 0.0000000e+00 0.0000000e+00 
0.0000000e+00 0.0000000e+00 0.0000000e+00 
0.0000000e+00 0.0000000e+00 0.0000000e+00 
0.0000000e+00 0.0000000e+00 0.0000000e+00 
0.0000000e+00 0.0000000e+00 0.0000000e+00 
0.0000000e+00 0.0000000e+00 0.0000000e+00 
0.0000000e+00 0.0000000e+00 0.0000000e+00 
0.0000000e+00 0.0000000e+00 0.0000000e+00 
0.0000000e+00 0.0000000e+00 0.0000000e+00 
0.0000000e+00 0.0000000e+00 0.0000000e+00 
0.0000000e+00 0.0000000e+00 0.0000000e+00 
0.0000000e+00 0.0000000e+00 0.0000000e+00 
0.0000000e+00 0.0000000e+00 0.0000000e+00 
-3.4204488e-05 0.0000000e+00 3.7789556e-04 
0.0000000e+00 0.0000000e+00 0.0000000e+00 
-3.4204488e-05 0.0000000e+00 3.7789556e-04 
0.0000000e+00 0.0000000e+00 0.0000000e+00 
-6.8129051e-05 0.0000000e+00 7.5466617e-04 
0.0000000e+00 0.0000000e+00 0.0000000e+00 
-6.8129051e-05 0.0000000e+00 7.5466617e-04 
0.0000000e+00 0.0000000e+00 0.0000000e+00 
-1.0287777e-04 0.0000000e+00 1.1428977e-03 
0.0000000e+00 0.0000000e+00 0.0000000e+00 
-1.0287777e-04 0.0000000e+00 1.1428977e-03 
0.0000000e+00 0.0000000e+00 0.0000000e+00 
-1.4409420e-04 0.0000000e+00 1.6068314e-03 
0.0000000e+00 0.0000000e+00 0.0000000e+00 
-1.4409420e-04 0.0000000e+00 1.6068314e-03 
0.0000000e+00 0.0000000e+00 0.0000000e+00 
-1.9280563e-04 0.0000000e+00 2.1605251e-03 
0.0000000e+00 0.0000000e+00 0.0000000e+00 
0.0000000e+00 0.0000000e+00 0.0000000e+00 
-1.9280563e-04 0.0000000e+00 2.1605251e-03 
0.0000000e+00 0.0000000e+00 0.0000000e+00 
0.0000000e+00 0.0000000e+00 0.0000000e+00 
-2.4340784e-04 0.0000000e+00 2.7428732e-03 
0.0000000e+00 0.0000000e+00 0.0000000e+00 
-2.4340784e-04 0.0000000e+00 2.7428732e-03 
0.0000000e+00 0.0000000e+00 0.0000000e+00 
-2.9289684e-04 0.0000000e+00 3.3206764e-03 
0.0000000e+00 0.0000000e+00 0.0000000e+00 
-2.9289684e-04 0.0000000e+00 3.3206764e-03 
0.0000000e+00 0.0000000e+00 0.0000000e+00 
0.0000000e+00 0.0000000e+00 0.0000000e+00 
-3.4117236e-04 0.0000000e+00 3.8934944e-03 
0.0000000e+00 0.0000000e+00 0.0000000e+00 
-3.4117236e-04 0.0000000e+00 3.8934944e-03 
0.0000000e+00 0.0000000e+00 0.0000000e+00 
-3.8813058e-04 0.0000000e+00 4.4608411e-03 
0.0000000e+00 0.0000000e+00 0.0000000e+00 
-3.8813058e-04 0.0000000e+00 4.4608411e-03 
0.0000000e+00 0.0000000e+00 0.0000000e+00 
-4.3372008e-04 0.0000000e+00 5.0224371e-03 
0.0000000e+00 0.0000000e+00 0.0000000e+00 
-4.3372008e-04 0.0000000e+00 5.0224371e-03 
0.0000000e+00 0.0000000e+00 0.0000000e+00 
-4.7794715e-04 0.0000000e+00 5.5782599e-03 
0.0000000e+00 0.0000000e+00 0.0000000e+00 
-4.7794715e-04 0.0000000e+00 5.5782599e-03 
0.0000000e+00 0.0000000e+00 0.0000000e+00 
0.0000000e+00 0.0000000e+00 0.0000000e+00 
-5.2078802e-04 0.0000000e+00 6.1281539e-03 
0.0000000e+00 0.0000000e+00 0.0000000e+00 
-5.2078802e-04 0.0000000e+00 6.1281539e-03 
0.0000000e+00 0.0000000e+00 0.0000000e+00 
-5.6219510e-04 0.0000000e+00 6.6718367e-03 
0.0000000e+00 0.0000000e+00 0.0000000e+00 
-5.6219510e-04 0.0000000e+00 6.6718367e-03 
0.0000000e+00 0.0000000e+00 0.0000000e+00 
-6.0216149e-04 0.0000000e+00 7.2091996e-03 
0.0000000e+00 0.0000000e+00 0.0000000e+00 
-6.0216149e-04 0.0000000e+00 7.2091996e-03 
0.0000000e+00 0.0000000e+00 0.0000000e+00 
0.0000000e+00 0.0000000e+00 0.0000000e+00 
-6.4071467e-04 0.0000000e+00 7.7402996e-03 
-6.4071467e-04 0.0000000e+00 7.7402996e-03 
0.0000000e+00 0.0000000e+00 0.0000000e+00 
0.0000000e+00 0.0000000e+00 0.0000000e+00 
-6.7785295e-04 0.0000000e+00 8.2650662e-03 
-6.7785295e-04 0.0000000e+00 8.2650662e-03 
0.0000000e+00 0.0000000e+00 0.0000000e+00 
0.0000000e+00 0.0000000e+00 0.0000000e+00 
-7.1353879e-04 0.0000000e+00 8.7832403e-03 
-7.1353879e-04 0.0000000e+00 8.7832403e-03 
0.0000000e+00 0.0000000e+00 0.0000000e+00 
0.0000000e+00 0.0000000e+00 0.0000000e+00 
-7.4776857e-04 0.0000000e+00 9.2947136e-03 
-7.4776857e-04 0.0000000e+00 9.2947136e-03 
0.0000000e+00 0.0000000e+00 0.0000000e+00 
0.0000000e+00 0.0000000e+00 0.0000000e+00 
-7.8057911e-04 0.0000000e+00 9.7995841e-03 
0.0000000e+00 0.0000000e+00 0.0000000e+00 
-7.8057911e-04 0.0000000e+00 9.7995841e-03 
0.0000000e+00 0.0000000e+00 0.0000000e+00 
-8.1197589e-04 0.0000000e+00 1.0297805e-02 
0.0000000e+00 0.0000000e+00 0.0000000e+00 
-8.1197589e-04 0.0000000e+00 1.0297805e-02 
0.0000000e+00 0.0000000e+00 0.0000000e+00 
-8.4193672e-04 0.0000000e+00 1.0789171e-02 
0.0000000e+00 0.0000000e+00 0.0000000e+00 
-8.4193672e-04 0.0000000e+00 1.0789171e-02 
0.0000000e+00 0.0000000e+00 0.0000000e+00 
0.0000000e+00 0.0000000e+00 0.0000000e+00 
-8.7047503e-04 0.0000000e+00 1.1273638e-02 
0.0000000e+00 0.0000000e+00 0.0000000e+00 
-8.7047503e-04 0.0000000e+00 1.1273638e-02 
0.0000000e+00 0.0000000e+00 0.0000000e+00 
-8.9763571e-04 0.0000000e+00 1.1751348e-02 
0.0000000e+00 0.0000000e+00 0.0000000e+00 
-8.9763571e-04 0.0000000e+00 1.1751348e-02 
0.0000000e+00 0.0000000e+00 0.0000000e+00 
0.0000000e+00 0.0000000e+00 0.0000000e+00 
-9.2343160e-04 0.0000000e+00 1.2222291e-02 
-9.2343160e-04 0.0000000e+00 1.2222291e-02 
0.0000000e+00 0.0000000e+00 0.0000000e+00 
0.0000000e+00 0.0000000e+00 0.0000000e+00 
-9.4783744e-04 0.0000000e+00 1.2686230e-02 
-9.4783744e-04 0.0000000e+00 1.2686230e-02 
0.0000000e+00 0.0000000e+00 0.0000000e+00 
0.0000000e+00 0.0000000e+00 0.0000000e+00 
-9.7085886e-04 0.0000000e+00 1.3143079e-02 
-9.7085886e-04 0.0000000e+00 1.3143079e-02 
0.0000000e+00 0.0000000e+00 0.0000000e+00 
0.0000000e+00 0.0000000e+00 0.0000000e+00 
-9.9253778e-04 0.0000000e+00 1.3592970e-02 
-9.9253778e-04 0.0000000e+00 1.3592970e-02 
0.0000000e+00 0.0000000e+00 0.0000000e+00 
0.0000000e+00 0.0000000e+00 0.0000000e+00 
-1.0128853e-03 0.0000000e+00 1.4035879e-02 
-1.0128853e-03 0.0000000e+00 1.4035879e-02 
0.0000000e+00 0.0000000e+00 0.0000000e+00 
0.0000000e+00 0.0000000e+00 0.0000000e+00 
-1.0318863e-03 0.0000000e+00 1.4471602e-02 
0.0000000e+00 0.0000000e+00 0.0000000e+00 
-1.0318863e-03 0.0000000e+00 1.4471602e-02 
0.0000000e+00 0.0000000e+00 0.0000000e+00 
-5.1701705e-05 0.0000000e+00 8.7803210e-04 
-1.0495567e-03 0.0000000e+00 1.4900096e-02 
-5.1701705e-05 0.0000000e+00 8.7803210e-04 
-1.0495567e-03 0.0000000e+00 1.4900096e-02 
-9.8930496e-05 0.0000000e+00 1.7942074e-03 
-1.0659380e-03 0.0000000e+00 1.5321499e-02 
-9.8930496e-05 0.0000000e+00 1.7942074e-03 
-1.0659380e-03 0.0000000e+00 1.5321499e-02 
-1.4341159e-04 0.0000000e+00 2.7165532e-03 
-1.4341159e-04 0.0000000e+00 2.7165532e-03 
-1.0810440e-03 0.0000000e+00 1.5735791e-02 
-1.0810440e-03 0.0000000e+00 1.5735791e-02 
-1.8599149e-04 0.0000000e+00 3.6323367e-03 
-1.8599149e-04 0.0000000e+00 3.6323367e-03 
-1.0948581e-03 0.0000000e+00 1.6142749e-02 
-1.0948581e-03 0.0000000e+00 1.6142749e-02 
-2.2665027e-04 0.0000000e+00 4.5414473e-03 
-2.2665027e-04 0.0000000e+00 4.5414473e-03 
-1.1073882e-03 0.0000000e+00 1.6542286e-02 
-1.1073882e-03 0.0000000e+00 1.6542286e-02 
-2.6527010e-04 0.0000000e+00 5.4434375e-03 
-2.6527010e-04 0.0000000e+00 5.4434375e-03 
-1.1186677e-03 0.0000000e+00 1.6934485e-02 
-1.1186677e-03 0.0000000e+00 1.6934485e-02 
-3.0166022e-04 0.0000000e+00 6.3375448e-03 
-3.0166022e-04 0.0000000e+00 6.3375448e-03 
-1.1287078e-03 0.0000000e+00 1.7319304e-02 
-1.1287078e-03 0.0000000e+00 1.7319304e-02 
-3.3567271e-04 0.0000000e+00 7.2231435e-03 
-3.3567271e-04 0.0000000e+00 7.2231435e-03 
-1.1375046e-03 0.0000000e+00 1.7696574e-02 
-3.6719829e-04 0.0000000e+00 8.0997101e-03 
-1.1375046e-03 0.0000000e+00 1.7696574e-02 
-3.6719829e-04 0.0000000e+00 8.0997101e-03 
-3.9614314e-04 0.0000000e+00 8.9667659e-03 
-1.1450752e-03 0.0000000e+00 1.8066243e-02 
-3.9614314e-04 0.0000000e+00 8.9667659e-03 
-1.1450752e-03 0.0000000e+00 1.8066243e-02 
-4.2244067e-04 0.0000000e+00 9.8239048e-03 
-1.1514521e-03 0.0000000e+00 1.8428389e-02 
-4.2244067e-04 0.0000000e+00 9.8239048e-03 
-1.1514521e-03 0.0000000e+00 1.8428389e-02 
-4.4605382e-04 0.0000000e+00 1.0670813e-02 
-4.4605382e-04 0.0000000e+00 1.0670813e-02 
-1.1566506e-03 0.0000000e+00 1.8782983e-02 
-1.1566506e-03 0.0000000e+00 1.8782983e-02 
-4.6697414e-04 0.0000000e+00 1.1507295e-02 
-4.6697414e-04 0.0000000e+00 1.1507295e-02 
-1.1606689e-03 0.0000000e+00 1.9129853e-02 
-1.1606689e-03 0.0000000e+00 1.9129853e-02 
-4.8517337e-04 0.0000000e+00 1.2333055e-02 
-4.8517337e-04 0.0000000e+00 1.2333055e-02 
-1.1635201e-03 0.0000000e+00 1.9468917e-02 
-1.1635201e-03 0.0000000e+00 1.9468917e-02 
-5.0060569e-04 0.0000000e+00 1.3147710e-02 
-5.0060569e-04 0.0000000e+00 1.3147710e-02 
-1.1652328e-03 0.0000000e+00 1.9800222e-02 
-1.1652328e-03 0.0000000e+00 1.9800222e-02 
-5.1325703e-04 0.0000000e+00 1.3950973e-02 
-5.1325703e-04 0.0000000e+00 1.3950973e-02 
-1.1658232e-03 0.0000000e+00 2.0123729e-02 
-1.1658232e-03 0.0000000e+00 2.0123729e-02 
-5.2312724e-04 0.0000000e+00 1.4742617e-02 
-5.2312724e-04 0.0000000e+00 1.4742617e-02 
-1.1653000e-03 0.0000000e+00 2.0439315e-02 
-1.1653000e-03 0.0000000e+00 2.0439315e-02 
-5.3020756e-04 0.0000000e+00 1.5522365e-02 
-5.3020756e-04 0.0000000e+00 1.5522365e-02 
-1.1636848e-03 0.0000000e+00 2.0746944e-02 
-1.1636848e-03 0.0000000e+00 2.0746944e-02 
-5.3449520e-04 0.0000000e+00 1.6289933e-02 
-5.3449520e-04 0.0000000e+00 1.6289933e-02 
-1.1610065e-03 0.0000000e+00 2.1046659e-02 
-5.3600970e-04 0.0000000e+00 1.7045129e-02 
-1.1610065e-03 0.0000000e+00 2.1046659e-02 
-5.3600970e-04 0.0000000e+00 1.7045129e-02 
-1.1572852e-03 0.0000000e+00 2.1338437e-02 
-5.3478795e-04 0.0000000e+00 1.7787829e-02 
-1.1572852e-03 0.0000000e+00 2.1338437e-02 
-5.3478795e-04 0.0000000e+00 1.7787829e-02 
-5.3085133e-04 0.0000000e+00 1.8517845e-02 
-1.1525319e-03 0.0000000e+00 2.1622164e-02 
-5.3085133e-04 0.0000000e+00 1.8517845e-02 
-1.1525319e-03 0.0000000e+00 2.1622164e-02 
-5.2421126e-04 0.0000000e+00 1.9234896e-02 
-5.2421126e-04 0.0000000e+00 1.9234896e-02 
-1.1467660e-03 0.0000000e+00 2.1897777e-02 
-1.1467660e-03 0.0000000e+00 2.1897777e-02 
-5.1489642e-04 0.0000000e+00 1.9938779e-02 
-5.1489642e-04 0.0000000e+00 1.9938779e-02 
-1.1400147e-03 0.0000000e+00 2.2165301e-02 
-1.1400147e-03 0.0000000e+00 2.2165301e-02 
-5.0293987e-04 0.0000000e+00 2.0629300e-02 
-5.0293987e-04 0.0000000e+00 2.0629300e-02 
-1.1322991e-03 0.0000000e+00 2.2424713e-02 
-1.1322991e-03 0.0000000e+00 2.2424713e-02 
-4.8837335e-04 0.0000000e+00 2.1306240e-02 
-4.8837335e-04 0.0000000e+00 2.1306240e-02 
-1.1236377e-03 0.0000000e+00 2.2675933e-02 
-1.1236377e-03 0.0000000e+00 2.2675933e-02 
-4.7123904e-04 0.0000000e+00 2.1969416e-02 
-4.7123904e-04 0.0000000e+00 2.1969416e-02 
-1.1140554e-03 0.0000000e+00 2.2918939e-02 
-1.1140554e-03 0.0000000e+00 2.2918939e-02 
-4.5158684e-04 0.0000000e+00 2.2618672e-02 
-4.5158684e-04 0.0000000e+00 2.2618672e-02 
-1.1035800e-03 0.0000000e+00 2.3153755e-02 
-1.1035800e-03 0.0000000e+00 2.3153755e-02 
-4.2947218e-04 0.0000000e+00 2.3253880e-02 
-4.2947218e-04 0.0000000e+00 2.3253880e-02 
-1.0922354e-03 0.0000000e+00 2.3380367e-02 
-1.0922354e-03 0.0000000e+00 2.3380367e-02 
-4.0494854e-04 0.0000000e+00 2.3874881e-02 
-4.0494854e-04 0.0000000e+00 2.3874881e-02 
-1.0800414e-03 0.0000000e+00 2.3598707e-02 
-1.0800414e-03 0.0000000e+00 2.3598707e-02 
-3.7806961e-04 0.0000000e+00 2.4481506e-02 
-3.7806961e-04 0.0000000e+00 2.4481506e-02 
-1.0670217e-03 0.0000000e+00 2.3808739e-02 
-1.0670217e-03 0.0000000e+00 2.3808739e-02 
-3.4889305e-04 0.0000000e+00 2.5073591e-02 
-3.4889305e-04 0.0000000e+00 2.5073591e-02 
-1.0532030e-03 0.0000000e+00 2.4010468e-02 
-1.0532030e-03 0.0000000e+00 2.4010468e-02 
-3.1747466e-04 0.0000000e+00 2.5650932e-02 
-3.1747466e-04 0.0000000e+00 2.5650932e-02 
-1.0386098e-03 0.0000000e+00 2.4203877e-02 
-1.0386098e-03 0.0000000e+00 2.4203877e-02 
-2.8387858e-04 0.0000000e+00 2.6213367e-02 
-2.8387858e-04 0.0000000e+00 2.6213367e-02 
-1.0232662e-03 0.0000000e+00 2.4388927e-02 
-2.4818063e-04 0.0000000e+00 2.6760802e-02 
-1.0232662e-03 0.0000000e+00 2.4388927e-02 
-2.4818063e-04 0.0000000e+00 2.6760802e-02 
-2.1045369e-04 0.0000000e+00 2.7293116e-02 
-1.0071989e-03 0.0000000e+00 2.4565602e-02 
-2.1045369e-04 0.0000000e+00 2.7293116e-02 
-1.0071989e-03 0.0000000e+00 2.4565602e-02 
-1.7076951e-04 0.0000000e+00 2.7810148e-02 
-9.9043536e-04 0.0000000e+00 2.4733910e-02 
-1.7076951e-04 0.0000000e+00 2.7810148e-02 
-9.9043536e-04 0.0000000e+00 2.4733910e-02 
-1.2920714e-04 0.0000000e+00 2.8311781e-02 
-1.2920714e-04 0.0000000e+00 2.8311781e-02 
-9.7300140e-04 0.0000000e+00 2.4893844e-02 
-9.7300140e-04 0.0000000e+00 2.4893844e-02 
-8.5851515e-05 0.0000000e+00 2.8797943e-02 
-8.5851515e-05 0.0000000e+00 2.8797943e-02 
-9.5492221e-04 0.0000000e+00 2.5045371e-02 
-9.5492221e-04 0.0000000e+00 2.5045371e-02 
-4.0782390e-05 0.0000000e+00 2.9268507e-02 
-4.0782390e-05 0.0000000e+00 2.9268507e-02 
-9.3622390e-04 0.0000000e+00 2.5188475e-02 
-9.3622390e-04 0.0000000e+00 2.5188475e-02 
5.9237638e-06 0.0000000e+00 2.9723260e-02 
5.9237638e-06 0.0000000e+00 2.9723260e-02 
-9.1693339e-04 0.0000000e+00 2.5323151e-02 
-9.1693339e-04 0.0000000e+00 2.5323151e-02 
5.4178612e-05 0.0000000e+00 3.0162073e-02 
5.4178612e-05 0.0000000e+00 3.0162073e-02 
-8.9707720e-04 0.0000000e+00 2.5449383e-02 
-8.9707720e-04 0.0000000e+00 2.5449383e-02 
1.0388488e-04 0.0000000e+00 3.0584934e-02 
1.0388488e-04 0.0000000e+00 3.0584934e-02 
-8.7668214e-04 0.0000000e+00 2.5567161e-02 
-8.7668214e-04 0.0000000e+00 2.5567161e-02 
1.5495312e-04 0.0000000e+00 3.0991731e-02 
1.5495312e-04 0.0000000e+00 3.0991731e-02 
-8.5577594e-04 0.0000000e+00 2.5676481e-02 
-8.5577594e-04 0.0000000e+00 2.5676481e-02 
2.0729467e-04 0.0000000e+00 3.1382247e-02 
2.0729467e-04 0.0000000e+00 3.1382247e-02 
-8.3438615e-04 0.0000000e+00 2.5777337e-02 
-8.3438615e-04 0.0000000e+00 2.5777337e-02 
2.6080532e-04 0.0000000e+00 3.1756419e-02 
2.6080532e-04 0.0000000e+00 3.1756419e-02 
-8.1254019e-04 0.0000000e+00 2.5869728e-02 
-8.1254019e-04 0.0000000e+00 2.5869728e-02 
3.1537526e-04 0.0000000e+00 3.2114365e-02 
3.1537526e-04 0.0000000e+00 3.2114365e-02 
-7.9026573e-04 0.0000000e+00 2.5953655e-02 
-7.9026573e-04 0.0000000e+00 2.5953655e-02 
3.7090525e-04 0.0000000e+00 3.2456050e-02 
3.7090525e-04 0.0000000e+00 3.2456050e-02 
-7.6759040e-04 0.0000000e+00 2.6029118e-02 
-7.6759040e-04 0.0000000e+00 2.6029118e-02 
4.2729127e-04 0.0000000e+00 3.2781311e-02 
4.2729127e-04 0.0000000e+00 3.2781311e-02 
-7.4454165e-04 0.0000000e+00 2.6096112e-02 
-7.4454165e-04 0.0000000e+00 2.6096112e-02 
4.8441387e-04 0.0000000e+00 3.3090291e-02 
4.8441387e-04 0.0000000e+00 3.3090291e-02 
-7.2114761e-04 0.0000000e+00 2.6154638e-02 
-7.2114761e-04 0.0000000e+00 2.6154638e-02 
5.4187615e-04 0.0000000e+00 3.3381996e-02 
5.4187615e-04 0.0000000e+00 3.3381996e-02 
-6.9736561e-04 0.0000000e+00 2.6204858e-02 
-6.9736561e-04 0.0000000e+00 2.6204858e-02 
6.1150491e-04 0.0000000e+00 3.3711574e-02 
6.1150491e-04 0.0000000e+00 3.3711574e-02 
-6.6844521e-04 0.0000000e+00 2.6253923e-02 
-6.6844521e-04 0.0000000e+00 2.6253923e-02 
6.9581580e-04 0.0000000e+00 3.4077769e-02 
6.9581580e-04 0.0000000e+00 3.4077769e-02 
-6.3325539e-04 0.0000000e+00 2.6296686e-02 
-6.3325539e-04 0.0000000e+00 2.6296686e-02 
7.9771803e-04 0.0000000e+00 3.4475383e-02 
7.9771803e-04 0.0000000e+00 3.4475383e-02 
-5.9087577e-04 0.0000000e+00 2.6324793e-02 
-5.9087577e-04 0.0000000e+00 2.6324793e-02 
9.0548334e-04 0.0000000e+00 3.4845031e-02 
9.0548334e-04 0.0000000e+00 3.4845031e-02 
-5.4799288e-04 0.0000000e+00 2.6328277e-02 
-5.4799288e-04 0.0000000e+00 2.6328277e-02 
1.0130999e-03 0.0000000e+00 3.5163532e-02 
1.0130999e-03 0.0000000e+00 3.5163532e-02 
-5.0474456e-04 0.0000000e+00 2.6307025e-02 
-5.0474456e-04 0.0000000e+00 2.6307025e-02 
1.1199999e-03 0.0000000e+00 3.5430546e-02 
1.1199999e-03 0.0000000e+00 3.5430546e-02 
-4.6126638e-04 0.0000000e+00 2.6261146e-02 
-4.6126638e-04 0.0000000e+00 2.6261146e-02 
1.2256095e-03 0.0000000e+00 3.5646071e-02 
1.2256095e-03 0.0000000e+00 3.5646071e-02 
-4.1769260e-04 0.0000000e+00 2.6190672e-02 
-4.1769260e-04 0.0000000e+00 2.6190672e-02 
1.3293601e-03 0.0000000e+00 3.5810239e-02 
1.3293601e-03 0.0000000e+00 3.5810239e-02 
-3.7416441e-04 0.0000000e+00 2.6095541e-02 
-3.7416441e-04 0.0000000e+00 2.6095541e-02 
1.4306985e-03 0.0000000e+00 3.5923420e-02 
1.4306985e-03 0.0000000e+00 3.5923420e-02 
-3.3081146e-04 0.0000000e+00 2.5976016e-02 
-3.3081146e-04 0.0000000e+00 2.5976016e-02 
1.5290924e-03 0.0000000e+00 3.5986132e-02 
1.5290924e-03 0.0000000e+00 3.5986132e-02 
-2.8776215e-04 0.0000000e+00 2.5832206e-02 