# vtk DataFile Version 4.0
vtk output
ASCII
DATASET UNSTRUCTURED_GRID
POINTS 824 float
-6.4148600e-05 1.0000000e-02 -4.4525366e-03 
-1.0680180e-04 1.0000000e-02 -2.8088474e-03 
3.4513260e-04 1.0000000e-02 -6.0450544e-03 
1.3803532e-03 1.0000000e-02 -7.3230534e-03 
6.5829700e-05 1.0000000e-02 -1.1736922e-03 
2.7142144e-03 1.0000000e-02 -8.2851896e-03 
5.0392030e-04 1.0000000e-02 6.5784910e-04 
4.1780764e-03 1.0000000e-02 -9.0342357e-03 
1.1628646e-03 1.0000000e-02 2.4220088e-03 
5.7070961e-03 1.0000000e-02 -9.6390187e-03 
2.0046218e-03 1.0000000e-02 4.1066196e-03 
7.2731595e-03 1.0000000e-02 -1.0140047e-02 
-6.4148600e-05 0.0000000e+00 -4.4525366e-03 
-1.0680180e-04 0.0000000e+00 -2.8088474e-03 
3.4513260e-04 0.0000000e+00 -6.0450544e-03 
1.3803532e-03 0.0000000e+00 -7.3230534e-03 
6.5829700e-05 0.0000000e+00 -1.1736922e-03 
2.9952540e-03 1.0000000e-02 5.7082181e-03 
8.8622628e-03 1.0000000e-02 -1.0562311e-02 
2.7142144e-03 0.0000000e+00 -8.2851896e-03 
5.0392030e-04 0.0000000e+00 6.5784910e-04 
4.1780764e-03 0.0000000e+00 -9.0342357e-03 
1.1628646e-03 0.0000000e+00 2.4220088e-03 
1.0466628e-02 1.0000000e-02 -1.0922252e-02 
4.1067238e-03 1.0000000e-02 7.2284501e-03 
5.7070961e-03 0.0000000e+00 -9.6390187e-03 
2.0046218e-03 0.0000000e+00 4.1066196e-03 
7.2731595e-03 0.0000000e+00 -1.0140047e-02 
1.2081579e-02 1.0000000e-02 -1.1231240e-02 
5.3166988e-03 1.0000000e-02 8.6715129e-03 
2.9952540e-03 0.0000000e+00 5.7082181e-03 
8.8622628e-03 0.0000000e+00 -1.0562311e-02 
1.3704120e-02 1.0000000e-02 -1.1497501e-02 
1.0466628e-02 0.0000000e+00 -1.0922252e-02 
4.1067238e-03 0.0000000e+00 7.2284501e-03 
6.6076374e-03 1.0000000e-02 1.0042624e-02 
1.5332244e-02 1.0000000e-02 -1.1727173e-02 
1.2081579e-02 0.0000000e+00 -1.1231240e-02 
5.3166988e-03 0.0000000e+00 8.6715129e-03 
7.9658343e-03 1.0000000e-02 1.1347144e-02 
1.3704120e-02 0.0000000e+00 -1.1497501e-02 
1.6964543e-02 1.0000000e-02 -1.1925002e-02 
6.6076374e-03 0.0000000e+00 1.0042624e-02 
9.3804686e-03 1.0000000e-02 1.2590236e-02 
1.5332244e-02 0.0000000e+00 -1.1727173e-02 
1.8600004e-02 1.0000000e-02 -1.2094716e-02 
7.9658343e-03 0.0000000e+00 1.1347144e-02 
1.6964543e-02 0.0000000e+00 -1.1925002e-02 
1.0843002e-02 1.0000000e-02 1.3776601e-02 
2.0237876e-02 1.0000000e-02 -1.2239318e-02 
9.3804686e-03 0.0000000e+00 1.2590236e-02 
1.8600004e-02 0.0000000e+00 -1.2094716e-02 
1.2346566e-02 1.0000000e-02 1.4910517e-02 
2.1877591e-02 1.0000000e-02 -1.2361246e-02 
1.0843002e-02 0.0000000e+00 1.3776601e-02 
2.0237876e-02 0.0000000e+00 -1.2239318e-02 
1.3885623e-02 1.0000000e-02 1.5995768e-02 
2.3518711e-02 1.0000000e-02 -1.2462540e-02 
1.2346566e-02 0.0000000e+00 1.4910517e-02 
2.1877591e-02 0.0000000e+00 -1.2361246e-02 
2.5160890e-02 1.0000000e-02 -1.2544903e-02 
1.5455654e-02 1.0000000e-02 1.7035707e-02 
1.3885623e-02 0.0000000e+00 1.5995768e-02 
2.3518711e-02 0.0000000e+00 -1.2462540e-02 
2.6803852e-02 1.0000000e-02 -1.2609772e-02 
1.7052912e-02 1.0000000e-02 1.8033321e-02 
2.5160890e-02 0.0000000e+00 -1.2544903e-02 
1.5455654e-02 0.0000000e+00 1.7035707e-02 
2.8447376e-02 1.0000000e-02 -1.2658389e-02 
2.6803852e-02 0.0000000e+00 -1.2609772e-02 
1.7052912e-02 0.0000000e+00 1.8033321e-02 
1.8674284e-02 1.0000000e-02 1.8991246e-02 
3.0091279e-02 1.0000000e-02 -1.2691814e-02 
2.8447376e-02 0.0000000e+00 -1.2658389e-02 
1.8674284e-02 0.0000000e+00 1.8991246e-02 
2.0317149e-02 1.0000000e-02 1.9911822e-02 
3.0091279e-02 0.0000000e+00 -1.2691814e-02 
3.1735410e-02 1.0000000e-02 -1.2710971e-02 
2.0317149e-02 0.0000000e+00 1.9911822e-02 
2.1979295e-02 1.0000000e-02 2.0797113e-02 
3.1735410e-02 0.0000000e+00 -1.2710971e-02 
3.3379643e-02 1.0000000e-02 -1.2716676e-02 
2.1979295e-02 0.0000000e+00 2.0797113e-02 
2.3658832e-02 1.0000000e-02 2.1648949e-02 
3.3379643e-02 0.0000000e+00 -1.2716676e-02 
3.5023871e-02 1.0000000e-02 -1.2709629e-02 
2.3658832e-02 0.0000000e+00 2.1648949e-02 
2.5354100e-02 1.0000000e-02 2.2469029e-02 
3.5023871e-02 0.0000000e+00 -1.2709629e-02 
3.6668001e-02 1.0000000e-02 -1.2690457e-02 
2.5354100e-02 0.0000000e+00 2.2469029e-02 
2.7063712e-02 1.0000000e-02 2.3258772e-02 
3.6668001e-02 0.0000000e+00 -1.2690457e-02 
3.8312016e-02 1.0000000e-02 -1.2663038e-02 
2.7063712e-02 0.0000000e+00 2.3258772e-02 
3.8312016e-02 0.0000000e+00 -1.2663038e-02 
2.8786417e-02 1.0000000e-02 2.4019532e-02 
3.9956032e-02 1.0000000e-02 -1.2635752e-02 
2.8786417e-02 0.0000000e+00 2.4019532e-02 
3.9956032e-02 0.0000000e+00 -1.2635752e-02 
3.0521135e-02 1.0000000e-02 2.4752486e-02 
4.1600048e-02 1.0000000e-02 -1.2608467e-02 
3.0521135e-02 0.0000000e+00 2.4752486e-02 
4.1600048e-02 0.0000000e+00 -1.2608467e-02 
3.2266919e-02 1.0000000e-02 2.5458676e-02 
4.3299814e-02 1.0000000e-02 -1.2580255e-02 
3.2266919e-02 0.0000000e+00 2.5458676e-02 
4.3299814e-02 0.0000000e+00 -1.2580255e-02 
3.4022902e-02 1.0000000e-02 2.6139111e-02 
4.5339533e-02 1.0000000e-02 -1.2546402e-02 
3.4022902e-02 0.0000000e+00 2.6139111e-02 
4.5339533e-02 0.0000000e+00 -1.2546402e-02 
3.5788340e-02 1.0000000e-02 2.6794623e-02 
4.7787196e-02 1.0000000e-02 -1.2505778e-02 
3.5788340e-02 0.0000000e+00 2.6794623e-02 
3.7562554e-02 1.0000000e-02 2.7425996e-02 
4.7787196e-02 0.0000000e+00 -1.2505778e-02 
3.7562554e-02 0.0000000e+00 2.7425996e-02 
3.9344928e-02 1.0000000e-02 2.8033950e-02 
5.0379113e-02 1.0000000e-02 -1.2462760e-02 
3.9344928e-02 0.0000000e+00 2.8033950e-02 
5.0379113e-02 0.0000000e+00 -1.2462760e-02 
4.1134916e-02 1.0000000e-02 2.8619109e-02 
5.2971029e-02 1.0000000e-02 -1.2419741e-02 
4.1134916e-02 0.0000000e+00 2.8619109e-02 
5.2971029e-02 0.0000000e+00 -1.2419741e-02 
4.2932026e-02 1.0000000e-02 2.9182016e-02 
4.2932026e-02 0.0000000e+00 2.9182016e-02 
5.5562946e-02 1.0000000e-02 -1.2376723e-02 
4.5339682e-02 1.0000000e-02 2.9899231e-02 
5.5562946e-02 0.0000000e+00 -1.2376723e-02 
4.5339682e-02 0.0000000e+00 2.9899231e-02 
5.8154863e-02 1.0000000e-02 -1.2333705e-02 
4.7758221e-02 1.0000000e-02 3.0578844e-02 
5.8154863e-02 0.0000000e+00 -1.2333705e-02 
4.7758221e-02 0.0000000e+00 3.0578844e-02 
6.0746779e-02 1.0000000e-02 -1.2290686e-02 
5.0186760e-02 1.0000000e-02 3.1221807e-02 
6.0746779e-02 0.0000000e+00 -1.2290686e-02 
5.0186760e-02 0.0000000e+00 3.1221807e-02 
6.3338696e-02 1.0000000e-02 -1.2247668e-02 
5.2624513e-02 1.0000000e-02 3.1828903e-02 
6.3338696e-02 0.0000000e+00 -1.2247668e-02 
5.2624513e-02 0.0000000e+00 3.1828903e-02 
5.5070762e-02 1.0000000e-02 3.2400804e-02 
6.5930613e-02 1.0000000e-02 -1.2204650e-02 
5.5070762e-02 0.0000000e+00 3.2400804e-02 
6.5930613e-02 0.0000000e+00 -1.2204650e-02 
5.7524847e-02 1.0000000e-02 3.2938082e-02 
6.8522529e-02 1.0000000e-02 -1.2161631e-02 
5.7524847e-02 0.0000000e+00 3.2938082e-02 
6.8522529e-02 0.0000000e+00 -1.2161631e-02 
5.9986169e-02 1.0000000e-02 3.3441170e-02 
7.1114446e-02 1.0000000e-02 -1.2118613e-02 
5.9986169e-02 0.0000000e+00 3.3441170e-02 
7.1114446e-02 0.0000000e+00 -1.2118613e-02 
6.2454163e-02 1.0000000e-02 3.3910436e-02 
6.2454163e-02 0.0000000e+00 3.3910436e-02 
7.3706362e-02 1.0000000e-02 -1.2075595e-02 
7.3706362e-02 0.0000000e+00 -1.2075595e-02 
6.4928303e-02 1.0000000e-02 3.4346139e-02 
6.4928303e-02 0.0000000e+00 3.4346139e-02 
7.6298279e-02 1.0000000e-02 -1.2032577e-02 
7.6298279e-02 0.0000000e+00 -1.2032577e-02 
6.7408092e-02 1.0000000e-02 3.4748446e-02 
6.7408092e-02 0.0000000e+00 3.4748446e-02 
7.8890196e-02 1.0000000e-02 -1.1989558e-02 
7.8890196e-02 0.0000000e+00 -1.1989558e-02 
6.9893057e-02 1.0000000e-02 3.5117436e-02 
6.9893057e-02 0.0000000e+00 3.5117436e-02 
8.1482112e-02 1.0000000e-02 -1.1946540e-02 
8.1482112e-02 0.0000000e+00 -1.1946540e-02 
7.2382742e-02 1.0000000e-02 3.5453098e-02 
7.2382742e-02 0.0000000e+00 3.5453098e-02 
8.4074029e-02 1.0000000e-02 -1.1903522e-02 
7.4876707e-02 1.0000000e-02 3.5755332e-02 
8.4074029e-02 0.0000000e+00 -1.1903522e-02 
7.4876707e-02 0.0000000e+00 3.5755332e-02 
8.6665946e-02 1.0000000e-02 -1.1860503e-02 
7.7374516e-02 1.0000000e-02 3.6023948e-02 
8.6665946e-02 0.0000000e+00 -1.1860503e-02 
7.7374516e-02 0.0000000e+00 3.6023948e-02 
8.9257862e-02 1.0000000e-02 -1.1817485e-02 
7.9875738e-02 1.0000000e-02 3.6258665e-02 
8.9257862e-02 0.0000000e+00 -1.1817485e-02 
7.9875738e-02 0.0000000e+00 3.6258665e-02 
8.2379940e-02 1.0000000e-02 3.6459105e-02 
9.1849779e-02 1.0000000e-02 -1.1774467e-02 
8.2379940e-02 0.0000000e+00 3.6459105e-02 
9.1849779e-02 0.0000000e+00 -1.1774467e-02 
8.4886681e-02 1.0000000e-02 3.6624786e-02 
9.4441696e-02 1.0000000e-02 -1.1731448e-02 
8.4886681e-02 0.0000000e+00 3.6624786e-02 
9.4441696e-02 0.0000000e+00 -1.1731448e-02 
8.7395510e-02 1.0000000e-02 3.6755108e-02 
8.7395510e-02 0.0000000e+00 3.6755108e-02 
9.7033612e-02 1.0000000e-02 -1.1688430e-02 
9.7033612e-02 0.0000000e+00 -1.1688430e-02 
8.9905951e-02 1.0000000e-02 3.6849401e-02 
8.9905951e-02 0.0000000e+00 3.6849401e-02 
9.9625529e-02 1.0000000e-02 -1.1645412e-02 
9.9625529e-02 0.0000000e+00 -1.1645412e-02 
9.2417505e-02 1.0000000e-02 3.6906832e-02 
9.2417505e-02 0.0000000e+00 3.6906832e-02 
1.0221745e-01 1.0000000e-02 -1.1602393e-02 
1.0221745e-01 0.0000000e+00 -1.1602393e-02 
9.4929640e-02 1.0000000e-02 3.6926425e-02 
9.4929640e-02 0.0000000e+00 3.6926425e-02 
1.0480936e-01 1.0000000e-02 -1.1559375e-02 
1.0480936e-01 0.0000000e+00 -1.1559375e-02 
9.7441776e-02 1.0000000e-02 3.6907077e-02 
9.7441776e-02 0.0000000e+00 3.6907077e-02 
1.0740128e-01 1.0000000e-02 -1.1516357e-02 
1.0740128e-01 0.0000000e+00 -1.1516357e-02 
9.9953281e-02 1.0000000e-02 3.6847529e-02 
9.9953281e-02 0.0000000e+00 3.6847529e-02 
1.0999320e-01 1.0000000e-02 -1.1473339e-02 
1.0246345e-01 1.0000000e-02 3.6746314e-02 
1.0999320e-01 0.0000000e+00 -1.1473339e-02 
1.0246345e-01 0.0000000e+00 3.6746314e-02 
1.0497150e-01 1.0000000e-02 3.6601738e-02 
1.1258511e-01 1.0000000e-02 -1.1430320e-02 
1.0497150e-01 0.0000000e+00 3.6601738e-02 
1.1258511e-01 0.0000000e+00 -1.1430320e-02 
1.0747666e-01 1.0000000e-02 3.6413638e-02 
1.1517703e-01 1.0000000e-02 -1.1387302e-02 
1.0747666e-01 0.0000000e+00 3.6413638e-02 
[...]
POINT_DATA 824
FIELD FieldData 2
DISPLACEMENT 3 824  float
0.0000000e+00 0.0000000e+00 0.0000000e+00 
0.0000000e+00 0.0000000e+00 0.0000000e+00 
0.0000000e+00 0.0000000e+00 0.0000000e+00 
0.0000000e+00 0.0000000e+00 0.0000000e+00 
0.0000000e+00 0.0000000e+00 0.0000000e+00 
0.0000000e+00 0.0000000e+00 0.0000000e+00 
0.0000000e+00 0.0000000e+00 0.0000000e+00 
0.0000000e+00 0.0000000e+00 0.0000000e+00 
0.0000000e+00 0.0000000e+00 0.0000000e+00 
0.0000000e+00 0.0000000e+00 0.0000000e+00 
0.0000000e+00 0.0000000e+00 0.0000000e+00 
0.0000000e+00 0.0000000e+00 0.0000000e+00 
0.0000000e+00 0.0000000e+00 0.0000000e+00 
0.0000000e+00 0.0000000e+00 0.0000000e+00 
0.0000000e+00 0.0000000e+00 0.0000000e+00 
0.0000000e+00 0.0000000e+00 0.0000000e+00 
0.0000000e+00 0.0000000e+00 0.0000000e+00 
0.0000000e+00 0.0000000e+00 0.0000000e+00 
0.0000000e+00 0.0000000e+00 0.0000000e+00 
0.0000000e+00 0.0000000e+00 0.0000000e+00 
0.0000000e+00 0.0000000e+00 0.0000000e+00 
0.0000000e+00 0.0000000e+00 0.0000000e+00 
0.0000000e+00 0.0000000e+00 0.0000000e+00 
0.0000000e+00 0.0000000e+00 0.0000000e+00 
0.0000000e+00 0.0000000e+00 0.0000000e+00 
0.0000000e+00 0.0000000e+00 0.0000000e+00 
0.0000000e+00 0.0000000e+00 0.0000000e+00 
0.0000000e+00 0.0000000e+00 0.0000000e+00 
0.0000000e+00 0.0000000e+00 0.0000000e+00 
0.0000000e+00 0.0000000e+00 0.0000000e+00 
0.0000000e+00 0.0000000e+00 0.0000000e+00 
0.0000000e+00 0.0000000e+00 0.0000000e+00 
0.0000000e+00 0.0000000e+00 0.0000000e+00 
0.0000000e+00 0.0000000e+00 0.0000000e+00 
0.0000000e+00 0.0000000e+00 0.0000000e+00 
0.0000000e+00 0.0000000e+00 0.0000000e+00 
0.0000000e+00 0.0000000e+00 0.0000000e+00 
0.0000000e+00 0.0000000e+00 0.0000000e+00 
0.0000000e+00 0.0000000e+00 0.0000000e+00 
0.0000000e+00 0.0000000e+00 0.0000000e+00 
0.0000000e+00 0.0000000e+00 0.0000000e+00 
0.0000000e+00 0.0000000e+00 0.0000000e+00 
0.0000000e+00 0.0000000e+00 0.0000000e+00 
0.0000000e+00 0.0000000e+00 0.0000000e+00 
0.0000000e+00 0.0000000e+00 0.0000000e+00 
0.0000000e+00 0.0000000e+00 0.0000000e+00 
0.0000000e+00 0.0000000e+00 0.0000000e+00 
0.0000000e+00 0.0000000e+00 0.0000000e+00 
0.0000000e+00 0.0000000e+00 0.0000000e+00 
0.0000000e+00 0.0000000e+00 0.0000000e+00 
0.0000000e+00 0.0000000e+00 0.0000000e+00 
0.0000000e+00 0.0000000e+00 0.0000000e+00 
0.0000000e+00 0.0000000e+00 0.0000000e+00 
0.0000000e+00 0.0000000e+00 0.0000000e+00 
0.0000000e+00 0.0000000e+00 0.0000000e+00 
0.0000000e+00 0.0000000e+00 0.0000000e+00 
0.0000000e+00 0.0000000e+00 0.0000000e+00 
0.0000000e+00 0.0000000e+00 0.0000000e+00 
0.0000000e+00 0.0000000e+00 0.0000000e+00 
0.0000000e+00 0.0000000e+00 0.0000000e+00 
0.0000000e+00 0.0000000e+00 0.0000000e+00 
0.0000000e+00 0.0000000e+00 0.0000000e+00 
0.0000000e+00 0.0000000e+00 0.0000000e+00 
0.0000000e+00 0.0000000e+00 0.0000000e+00 
0.0000000e+00 0.0000000e+00 0.0000000e+00 
0.0000000e+00 0.0000000e+00 0.0000000e+00 
0.0000000e+00 0.0000000e+00 0.0000000e+00 
0.0000000e+00 0.0000000e+00 0.0000000e+00 
0.0000000e+00 0.0000000e+00 0.0000000e+00 
0.0000000e+00 0.0000000e+00 0.0000000e+00 
0.0000000e+00 0.0000000e+00 0.0000000e+00 
0.0000000e+00 0.0000000e+00 0.0000000e+00 
0.0000000e+00 0.0000000e+00 0.0000000e+00 
0.0000000e+00 0.0000000e+00 0.0000000e+00 
0.0000000e+00 0.0000000e+00 0.0000000e+00 
0.0000000e+00 0.0000000e+00 0.0000000e+00 
0.0000000e+00 0.0000000e+00 0.0000000e+00 
0.0000000e+00 0.0000000e+00 0.0000000e+00 
0.0000000e+00 0.0000000e+00 0.0000000e+00 
0.0000000e+00 0.0000000e+00 0.0000000e+00 
0.0000000e+00 0.0000000e+00 0.0000000e+00 
0.0000000e+00 0.0000000e+00 0.0000000e+00 
0.0000000e+00 0.0000000e+00 0.0000000e+00 
0.0000000e+00 0.0000000e+00 0.0000000e+00 
0.0000000e+00 0.0000000e+00 0.0000000e+00 
0.0000000e+00 0.0000000e+00 0.0000000e+00 
0.0000000e+00 0.0000000e+00 0.0000000e+00 
0.0000000e+00 0.0000000e+00 0.0000000e+00 
0.0000000e+00 0.0000000e+00 0.0000000e+00 
0.0000000e+00 0.0000000e+00 0.0000000e+00 
0.0000000e+00 0.0000000e+00 0.0000000e+00 
0.0000000e+00 0.0000000e+00 0.0000000e+00 
0.0000000e+00 0.0000000e+00 0.0000000e+00 
0.0000000e+00 0.0000000e+00 0.0000000e+00 
0.0000000e+00 0.0000000e+00 0.0000000e+00 
0.0000000e+00 0.0000000e+00 0.0000000e+00 
0.0000000e+00 0.0000000e+00 0.0000000e+00 
-8.5678432e-06 0.0000000e+00 2.2742877e-04 
0.0000000e+00 0.0000000e+00 0.0000000e+00 
-8.5678432e-06 0.0000000e+00 2.2742877e-04 
0.0000000e+00 0.0000000e+00 0.0000000e+00 
-1.8890706e-05 0.0000000e+00 4.6435115e-04 
0.0000000e+00 0.0000000e+00 0.0000000e+00 
-1.8890706e-05 0.0000000e+00 4.6435115e-04 
0.0000000e+00 0.0000000e+00 0.0000000e+00 
-3.0936258e-05 0.0000000e+00 7.1669750e-04 
0.0000000e+00 0.0000000e+00 0.0000000e+00 
-3.0936258e-05 0.0000000e+00 7.1669750e-04 
0.0000000e+00 0.0000000e+00 0.0000000e+00 
-4.7059606e-05 0.0000000e+00 1.0285262e-03 
0.0000000e+00 0.0000000e+00 0.0000000e+00 
-4.7059606e-05 0.0000000e+00 1.0285262e-03 
0.0000000e+00 0.0000000e+00 0.0000000e+00 
-6.8396149e-05 0.0000000e+00 1.4131306e-03 
0.0000000e+00 0.0000000e+00 0.0000000e+00 
0.0000000e+00 0.0000000e+00 0.0000000e+00 
-6.8396149e-05 0.0000000e+00 1.4131306e-03 
0.0000000e+00 0.0000000e+00 0.0000000e+00 
4.7975388e-05 0.0000000e+00 -1.0225993e-04 
-9.2511600e-05 0.0000000e+00 1.8286252e-03 
4.7975388e-05 0.0000000e+00 -1.0225993e-04 
-9.2511600e-05 0.0000000e+00 1.8286252e-03 
9.0621853e-05 0.0000000e+00 -1.9043381e-04 
-1.1847256e-04 0.0000000e+00 2.2537630e-03 
9.0621853e-05 0.0000000e+00 -1.9043381e-04 
-1.1847256e-04 0.0000000e+00 2.2537630e-03 
1.2828898e-04 0.0000000e+00 -2.6498943e-04 
1.2828898e-04 0.0000000e+00 -2.6498943e-04 
-1.4615862e-04 0.0000000e+00 2.6872839e-03 
1.7077934e-04 0.0000000e+00 -3.4102246e-04 
-1.4615862e-04 0.0000000e+00 2.6872839e-03 
1.7077934e-04 0.0000000e+00 -3.4102246e-04 
-1.7475190e-04 0.0000000e+00 3.1254497e-03 
2.0475758e-04 0.0000000e+00 -3.8885398e-04 
-1.7475190e-04 0.0000000e+00 3.1254497e-03 
2.0475758e-04 0.0000000e+00 -3.8885398e-04 
-2.0462426e-04 0.0000000e+00 3.5699869e-03 
2.3146014e-04 0.0000000e+00 -4.1134128e-04 
-2.0462426e-04 0.0000000e+00 3.5699869e-03 
2.3146014e-04 0.0000000e+00 -4.1134128e-04 
-2.3566432e-04 0.0000000e+00 4.0200310e-03 
2.5116297e-04 0.0000000e+00 -4.0725140e-04 
-2.3566432e-04 0.0000000e+00 4.0200310e-03 
2.5116297e-04 0.0000000e+00 -4.0725140e-04 
2.6417806e-04 0.0000000e+00 -3.7553867e-04 
-2.6712780e-04 0.0000000e+00 4.4721582e-03 
2.6417806e-04 0.0000000e+00 -3.7553867e-04 
-2.6712780e-04 0.0000000e+00 4.4721582e-03 
2.7120358e-04 0.0000000e+00 -3.1700156e-04 
-2.9935549e-04 0.0000000e+00 4.9279496e-03 
2.7120358e-04 0.0000000e+00 -3.1700156e-04 
-2.9935549e-04 0.0000000e+00 4.9279496e-03 
2.7281953e-04 0.0000000e+00 -2.3208634e-04 
-3.3279641e-04 0.0000000e+00 5.3893627e-03 
2.7281953e-04 0.0000000e+00 -2.3208634e-04 
-3.3279641e-04 0.0000000e+00 5.3893627e-03 
2.6942003e-04 0.0000000e+00 -1.2043827e-04 
2.6942003e-04 0.0000000e+00 -1.2043827e-04 
-3.6597029e-04 0.0000000e+00 5.8494049e-03 
-3.6597029e-04 0.0000000e+00 5.8494049e-03 
2.6162015e-04 0.0000000e+00 1.7084509e-05 
2.6162015e-04 0.0000000e+00 1.7084509e-05 
-3.9915518e-04 0.0000000e+00 6.3093639e-03 
-3.9915518e-04 0.0000000e+00 6.3093639e-03 
2.4983245e-04 0.0000000e+00 1.8056446e-04 
2.4983245e-04 0.0000000e+00 1.8056446e-04 
-4.3271325e-04 0.0000000e+00 6.7710522e-03 
-4.3271325e-04 0.0000000e+00 6.7710522e-03 
2.3440924e-04 0.0000000e+00 3.7060965e-04 
2.3440924e-04 0.0000000e+00 3.7060965e-04 
-4.6529113e-04 0.0000000e+00 7.2278222e-03 
-4.6529113e-04 0.0000000e+00 7.2278222e-03 
2.1600028e-04 0.0000000e+00 5.8603498e-04 
2.1600028e-04 0.0000000e+00 5.8603498e-04 
-4.9718563e-04 0.0000000e+00 7.6810286e-03 
1.9474361e-04 0.0000000e+00 8.2819974e-04 
-4.9718563e-04 0.0000000e+00 7.6810286e-03 
1.9474361e-04 0.0000000e+00 8.2819974e-04 
-5.2873946e-04 0.0000000e+00 8.1326186e-03 
1.7103647e-04 0.0000000e+00 1.0977165e-03 
-5.2873946e-04 0.0000000e+00 8.1326186e-03 
1.7103647e-04 0.0000000e+00 1.0977165e-03 
-5.5939460e-04 0.0000000e+00 8.5799087e-03 
1.4560097e-04 0.0000000e+00 1.3931271e-03 
-5.5939460e-04 0.0000000e+00 8.5799087e-03 
1.4560097e-04 0.0000000e+00 1.3931271e-03 
1.1848681e-04 0.0000000e+00 1.7164762e-03 
-5.8883332e-04 0.0000000e+00 9.0208047e-03 
1.1848681e-04 0.0000000e+00 1.7164762e-03 
-5.8883332e-04 0.0000000e+00 9.0208047e-03 
8.9762961e-05 0.0000000e+00 2.0702822e-03 
-6.1740667e-04 0.0000000e+00 9.4574552e-03 
8.9762961e-05 0.0000000e+00 2.0702822e-03 
-6.1740667e-04 0.0000000e+00 9.4574552e-03 
6.0664359e-05 0.0000000e+00 2.4510399e-03 
6.0664359e-05 0.0000000e+00 2.4510399e-03 
-6.4473653e-04 0.0000000e+00 9.8879237e-03 
-6.4473653e-04 0.0000000e+00 9.8879237e-03 
3.1247983e-05 0.0000000e+00 2.8612793e-03 
3.1247983e-05 0.0000000e+00 2.8612793e-03 
-6.7060984e-04 0.0000000e+00 1.0310448e-02 
-6.7060984e-04 0.0000000e+00 1.0310448e-02 
1.6254570e-06 0.0000000e+00 3.3040790e-03 
1.6254570e-06 0.0000000e+00 3.3040790e-03 
-6.9528128e-04 0.0000000e+00 1.0726797e-02 
-6.9528128e-04 0.0000000e+00 1.0726797e-02 
-2.7218933e-05 0.0000000e+00 3.7782438e-03 
-2.7218933e-05 0.0000000e+00 3.7782438e-03 
-7.1857571e-04 0.0000000e+00 1.1135951e-02 
-7.1857571e-04 0.0000000e+00 1.1135951e-02 
-5.4759534e-05 0.0000000e+00 4.2845063e-03 
-5.4759534e-05 0.0000000e+00 4.2845063e-03 
-7.4019519e-04 0.0000000e+00 1.1536186e-02 
-7.4019519e-04 0.0000000e+00 1.1536186e-02 
-8.0778924e-05 0.0000000e+00 4.8266550e-03 
-8.0778924e-05 0.0000000e+00 4.8266550e-03 
-7.6031283e-04 0.0000000e+00 1.1927586e-02 
-1.0408176e-04 0.0000000e+00 5.4037284e-03 
-7.6031283e-04 0.0000000e+00 1.1927586e-02 
-1.0408176e-04 0.0000000e+00 5.4037284e-03 
-1.2347898e-04 0.0000000e+00 6.0146701e-03 
-7.7931604e-04 0.0000000e+00 1.2312803e-02 
-1.2347898e-04 0.0000000e+00 6.0146701e-03 
-7.7931604e-04 0.0000000e+00 1.2312803e-02 
-1.3913362e-04 0.0000000e+00 6.6648658e-03 
-7.9698148e-04 0.0000000e+00 1.2690463e-02 
-1.3913362e-04 0.0000000e+00 6.6648658e-03 
-7.9698148e-04 0.0000000e+00 1.2690463e-02 
-1.5245415e-04 0.0000000e+00 7.3204481e-03 
-1.5245415e-04 0.0000000e+00 7.3204481e-03 
-8.1296695e-04 0.0000000e+00 1.3058415e-02 
-8.1296695e-04 0.0000000e+00 1.3058415e-02 
-1.6398041e-04 0.0000000e+00 7.9660936e-03 
-1.6398041e-04 0.0000000e+00 7.9660936e-03 
-8.2774293e-04 0.0000000e+00 1.3418645e-02 
-8.2774293e-04 0.0000000e+00 1.3418645e-02 
-1.7454048e-04 0.0000000e+00 8.6067561e-03 
-1.7454048e-04 0.0000000e+00 8.6067561e-03 
-8.4152758e-04 0.0000000e+00 1.3772885e-02 
-8.4152758e-04 0.0000000e+00 1.3772885e-02 
-1.8352759e-04 0.0000000e+00 9.2391976e-03 
-1.8352759e-04 0.0000000e+00 9.2391976e-03 
-8.5391725e-04 0.0000000e+00 1.4118496e-02 
-8.5391725e-04 0.0000000e+00 1.4118496e-02 
-1.9052074e-04 0.0000000e+00 9.8600356e-03 
-1.9052074e-04 0.0000000e+00 9.8600356e-03 
-8.6498989e-04 0.0000000e+00 1.4455685e-02 
-8.6498989e-04 0.0000000e+00 1.4455685e-02 
-1.9598765e-04 0.0000000e+00 1.0471569e-02 
-1.9598765e-04 0.0000000e+00 1.0471569e-02 
-8.7477080e-04 0.0000000e+00 1.4783984e-02 
-1.9966057e-04 0.0000000e+00 1.1073077e-02 
-8.7477080e-04 0.0000000e+00 1.4783984e-02 
-1.9966057e-04 0.0000000e+00 1.1073077e-02 
-2.0117649e-04 0.0000000e+00 1.1661049e-02 
-8.8336811e-04 0.0000000e+00 1.5103891e-02 
-2.0117649e-04 0.0000000e+00 1.1661049e-02 
-8.8336811e-04 0.0000000e+00 1.5103891e-02 
-2.0095758e-04 0.0000000e+00 1.2237582e-02 
-8.9092089e-04 0.0000000e+00 1.5416576e-02 
-2.0095758e-04 0.0000000e+00 1.2237582e-02 
-8.9092089e-04 0.0000000e+00 1.5416576e-02 
-1.9925412e-04 0.0000000e+00 1.2805121e-02 
-1.9925412e-04 0.0000000e+00 1.2805121e-02 
-8.9736993e-04 0.0000000e+00 1.5721329e-02 
-8.9736993e-04 0.0000000e+00 1.5721329e-02 
-1.9539583e-04 0.0000000e+00 1.3357874e-02 
-1.9539583e-04 0.0000000e+00 1.3357874e-02 
-9.0269518e-04 0.0000000e+00 1.6017744e-02 
-9.0269518e-04 0.0000000e+00 1.6017744e-02 
-1.8984783e-04 0.0000000e+00 1.3898335e-02 
-1.8984783e-04 0.0000000e+00 1.3898335e-02 
-9.0690332e-04 0.0000000e+00 1.6305583e-02 
-9.0690332e-04 0.0000000e+00 1.6305583e-02 
-1.8276668e-04 0.0000000e+00 1.4428531e-02 
-1.8276668e-04 0.0000000e+00 1.4428531e-02 
-9.1008259e-04 0.0000000e+00 1.6585036e-02 
-9.1008259e-04 0.0000000e+00 1.6585036e-02 
-1.7377049e-04 0.0000000e+00 1.4945354e-02 
-1.7377049e-04 0.0000000e+00 1.4945354e-02 
-9.1230487e-04 0.0000000e+00 1.6856441e-02 
-9.1230487e-04 0.0000000e+00 1.6856441e-02 
-1.6293670e-04 0.0000000e+00 1.5447442e-02 
-1.6293670e-04 0.0000000e+00 1.5447442e-02 
-9.1358960e-04 0.0000000e+00 1.7119841e-02 
-9.1358960e-04 0.0000000e+00 1.7119841e-02 
-1.5061851e-04 0.0000000e+00 1.5936857e-02 
-1.5061851e-04 0.0000000e+00 1.5936857e-02 
-9.1388427e-04 0.0000000e+00 1.7374469e-02 
-9.1388427e-04 0.0000000e+00 1.7374469e-02 
-1.3695725e-04 0.0000000e+00 1.6415677e-02 
-1.3695725e-04 0.0000000e+00 1.6415677e-02 
-9.1325512e-04 0.0000000e+00 1.7620501e-02 
-1.2156673e-04 0.0000000e+00 1.6880131e-02 
-9.1325512e-04 0.0000000e+00 1.7620501e-02 
-1.2156673e-04 0.0000000e+00 1.6880131e-02 
-9.1169722e-04 0.0000000e+00 1.7857532e-02 
-1.0455148e-04 0.0000000e+00 1.7328868e-02 
-9.1169722e-04 0.0000000e+00 1.7857532e-02 
-1.0455148e-04 0.0000000e+00 1.7328868e-02 
-8.6197025e-05 0.0000000e+00 1.7763676e-02 
-9.0914708e-04 0.0000000e+00 1.8084530e-02 
-8.6197025e-05 0.0000000e+00 1.7763676e-02 
-9.0914708e-04 0.0000000e+00 1.8084530e-02 
-6.6558896e-05 0.0000000e+00 1.8185983e-02 
-6.6558896e-05 0.0000000e+00 1.8185983e-02 
-9.0565199e-04 0.0000000e+00 1.8301694e-02 
-9.0565199e-04 0.0000000e+00 1.8301694e-02 
-4.5445803e-05 0.0000000e+00 1.8592935e-02 
-4.5445803e-05 0.0000000e+00 1.8592935e-02 
-9.0126934e-04 0.0000000e+00 1.8509004e-02 
-9.0126934e-04 0.0000000e+00 1.8509004e-02 
-2.2874445e-05 0.0000000e+00 1.8983593e-02 
-2.2874445e-05 0.0000000e+00 1.8983593e-02 
-8.9593393e-04 0.0000000e+00 1.8705193e-02 
-8.9593393e-04 0.0000000e+00 1.8705193e-02 
1.0426977e-06 0.0000000e+00 1.9355937e-02 
1.0426977e-06 0.0000000e+00 1.9355937e-02 
-8.8970980e-04 0.0000000e+00 1.8890432e-02 
-8.8970980e-04 0.0000000e+00 1.8890432e-02 
2.6077276e-05 0.0000000e+00 1.9713516e-02 
2.6077276e-05 0.0000000e+00 1.9713516e-02 
-8.8268185e-04 0.0000000e+00 1.9065489e-02 
-8.8268185e-04 0.0000000e+00 1.9065489e-02 
5.2220788e-05 0.0000000e+00 2.0055120e-02 
5.2220788e-05 0.0000000e+00 2.0055120e-02 
-8.7476251e-04 0.0000000e+00 1.9228222e-02 
-8.7476251e-04 0.0000000e+00 1.9228222e-02 
7.9479052e-05 0.0000000e+00 2.0378927e-02 
7.9479052e-05 0.0000000e+00 2.0378927e-02 
-8.6601660e-04 0.0000000e+00 1.9378720e-02 
-8.6601660e-04 0.0000000e+00 1.9378720e-02 
1.0762352e-04 0.0000000e+00 2.0684179e-02 
1.0762352e-04 0.0000000e+00 2.0684179e-02 
-8.5659482e-04 0.0000000e+00 1.9518508e-02 
-8.5659482e-04 0.0000000e+00 1.9518508e-02 
1.3649000e-04 0.0000000e+00 2.0974578e-02 
1.3649000e-04 0.0000000e+00 2.0974578e-02 
-8.4642279e-04 0.0000000e+00 1.9646081e-02 
-8.4642279e-04 0.0000000e+00 1.9646081e-02 
1.6603192e-04 0.0000000e+00 2.1249010e-02 
1.6603192e-04 0.0000000e+00 2.1249010e-02 
-8.3554860e-04 0.0000000e+00 1.9760617e-02 
-8.3554860e-04 0.0000000e+00 1.9760617e-02 
1.9617398e-04 0.0000000e+00 2.1506607e-02 
1.9617398e-04 0.0000000e+00 2.1506607e-02 
-8.2410543e-04 0.0000000e+00 1.9863593e-02 
-8.2410543e-04 0.0000000e+00 1.9863593e-02 
2.2679432e-04 0.0000000e+00 2.1747624e-02 
2.2679432e-04 0.0000000e+00 2.1747624e-02 
-8.1212592e-04 0.0000000e+00 1.9955472e-02 
2.5767995e-04 0.0000000e+00 2.1971761e-02 
-8.1212592e-04 0.0000000e+00 1.9955472e-02 
2.5767995e-04 0.0000000e+00 2.1971761e-02 
2.8869804e-04 0.0000000e+00 2.2180872e-02 
-7.9963142e-04 0.0000000e+00 2.0035632e-02 
2.8869804e-04 0.0000000e+00 2.2180872e-02 
-7.9963142e-04 0.0000000e+00 2.0035632e-02 
3.1984262e-04 0.0000000e+00 2.2376604e-02 
-7.8670760e-04 0.0000000e+00 2.0103904e-02 
3.1984262e-04 0.0000000e+00 2.2376604e-02 
-7.8670760e-04 0.0000000e+00 2.0103904e-02 
3.5103844e-04 0.0000000e+00 2.2558594e-02 
3.5103844e-04 0.0000000e+00 2.2558594e-02 
-7.7343764e-04 0.0000000e+00 2.0161313e-02 
-7.7343764e-04 0.0000000e+00 2.0161313e-02 
3.8219678e-04 0.0000000e+00 2.2727287e-02 
3.8219678e-04 0.0000000e+00 2.2727287e-02 
-7.5982398e-04 0.0000000e+00 2.0207696e-02 
-7.5982398e-04 0.0000000e+00 2.0207696e-02 
4.1324201e-04 0.0000000e+00 2.2882665e-02 
4.1324201e-04 0.0000000e+00 2.2882665e-02 
-7.4594526e-04 0.0000000e+00 2.0242811e-02 
-7.4594526e-04 0.0000000e+00 2.0242811e-02 
4.4406019e-04 0.0000000e+00 2.3024899e-02 
4.4406019e-04 0.0000000e+00 2.3024899e-02 
-7.3186316e-04 0.0000000e+00 2.0267454e-02 
-7.3186316e-04 0.0000000e+00 2.0267454e-02 
4.7467739e-04 0.0000000e+00 2.3156684e-02 
4.7467739e-04 0.0000000e+00 2.3156684e-02 
-7.1762803e-04 0.0000000e+00 2.0282281e-02 
-7.1762803e-04 0.0000000e+00 2.0282281e-02 
5.0504299e-04 0.0000000e+00 2.3277916e-02 
5.0504299e-04 0.0000000e+00 2.3277916e-02 
-7.0325172e-04 0.0000000e+00 2.0288076e-02 
-7.0325172e-04 0.0000000e+00 2.0288076e-02 
5.3510468e-04 0.0000000e+00 2.3388464e-02 
5.3510468e-04 0.0000000e+00 2.3388464e-02 
-6.8879263e-04 0.0000000e+00 2.0284040e-02 
-6.8879263e-04 0.0000000e+00 2.0284040e-02 
5.6482031e-04 0.0000000e+00 2.3488532e-02 
5.6482031e-04 0.0000000e+00 2.3488532e-02 
-6.7429098e-04 0.0000000e+00 2.0271361e-02 
-6.7429098e-04 0.0000000e+00 2.0271361e-02 
5.9416842e-04 0.0000000e+00 2.3578947e-02 
5.9416842e-04 0.0000000e+00 2.3578947e-02 
-6.5974576e-04 0.0000000e+00 2.0250292e-02 
-6.5974576e-04 0.0000000e+00 2.0250292e-02 
6.2310940e-04 0.0000000e+00 2.3659881e-02 
6.2310940e-04 0.0000000e+00 2.3659881e-02 
-6.4521540e-04 0.0000000e+00 2.0220142e-02 
-6.4521540e-04 0.0000000e+00 2.0220142e-02 
6.5161838e-04 0.0000000e+00 2.3731561e-02 
6.5161838e-04 0.0000000e+00 2.3731561e-02 
-6.3072287e-04 0.0000000e+00 2.0182217e-02 
-6.3072287e-04 0.0000000e+00 2.0182217e-02 
6.7969244e-04 0.0000000e+00 2.3794446e-02 
6.7969244e-04 0.0000000e+00 2.3794446e-02 
-6.1628256e-04 0.0000000e+00 2.0137438e-02 
-6.1628256e-04 0.0000000e+00 2.0137438e-02 
7.0731883e-04 0.0000000e+00 2.3848965e-02 
7.0731883e-04 0.0000000e+00 2.3848965e-02 
-6.0189287e-04 0.0000000e+00 2.0085296e-02 
-6.0189287e-04 0.0000000e+00 2.0085296e-02 
7.3435077e-04 0.0000000e+00 2.3895117e-02 
7.3435077e-04 0.0000000e+00 2.3895117e-02 
-5.8756815e-04 0.0000000e+00 2.0025443e-02 
-5.8756815e-04 0.0000000e+00 2.0025443e-02 
7.6618269e-04 0.0000000e+00 2.3940394e-02 
7.6618269e-04 0.0000000e+00 2.3940394e-02 
-5.7047011e-04 0.0000000e+00 1.9946685e-02 
-5.7047011e-04 0.0000000e+00 1.9946685e-02 
8.0348386e-04 0.0000000e+00 2.3980646e-02 
8.0348386e-04 0.0000000e+00 2.3980646e-02 
-5.5023223e-04 0.0000000e+00 1.9837681e-02 
-5.5023223e-04 0.0000000e+00 1.9837681e-02 
8.4680095e-04 0.0000000e+00 2.4007607e-02 
8.4680095e-04 0.0000000e+00 2.4007607e-02 
-5.2642863e-04 0.0000000e+00 1.9696045e-02 
-5.2642863e-04 0.0000000e+00 1.9696045e-02 
8.9084978e-04 0.0000000e+00 2.4013916e-02 
8.9084978e-04 0.0000000e+00 2.4013916e-02 
-5.0291443e-04 0.0000000e+00 1.9541396e-02 
-5.0291443e-04 0.0000000e+00 1.9541396e-02 
9.3329764e-04 0.0000000e+00 2.3999461e-02 
9.3329764e-04 0.0000000e+00 2.3999461e-02 
-4.7980909e-04 0.0000000e+00 1.9372052e-02 
-4.7980909e-04 0.0000000e+00 1.9372052e-02 
9.7418124e-04 0.0000000e+00 2.3965550e-02 
9.7418124e-04 0.0000000e+00 2.3965550e-02 
-4.5691767e-04 0.0000000e+00 1.9194779e-02 
-4.5691767e-04 0.0000000e+00 1.9194779e-02 
1.0134098e-03 0.0000000e+00 2.3912079e-02 
1.0134098e-03 0.0000000e+00 2.3912079e-02 
-4.3433561e-04 0.0000000e+00 1.9007023e-02 
-4.3433561e-04 0.0000000e+00 1.9007023e-02 
1.0514172e-03 0.0000000e+00 2.3844591e-02 
1.0514172e-03 0.0000000e+00 2.3844591e-02 
-4.1206511e-04 0.0000000e+00 1.8809223e-02 
-4.1206511e-04 0.0000000e+00 1.8809223e-02 
1.0883098e-03 0.0000000e+00 2.3764658e-02 
1.0883098e-03 0.0000000e+00 2.3764658e-02 
-3.9008029e-04 0.0000000e+00 1.8602599e-02 
-3.9008029e-04 0.0000000e+00 1.8602599e-02 
1.1241960e-03 0.0000000e+00 2.3673729e-02 
1.1241960e-03 0.0000000e+00 2.3673729e-02 
-3.6836661e-04 0.0000000e+00 1.8387875e-02 