# vtk DataFile Version 4.0
vtk output
ASCII
DATASET UNSTRUCTURED_GRID
POINTS 824 float
-6.4148600e-05 1.0000000e-02 -4.4525366e-03 
-1.0680180e-04 1.0000000e-02 -2.8088474e-03 
3.4513260e-04 1.0000000e-02 -6.0450544e-03 
1.3803532e-03 1.0000000e-02 -7.3230534e-03 
6.5829700e-05 1.0000000e-02 -1.1736922e-03 
2.7142144e-03 1.0000000e-02 -8.2851896e-03 
5.0392030e-04 1.0000000e-02 6.5784910e-04 
4.1780764e-03 1.0000000e-02 -9.0342357e-03 
1.1628646e-03 1.0000000e-02 2.4220088e-03 
5.7070961e-03 1.0000000e-02 -9.6390187e-03 
2.0046218e-03 1.0000000e-02 4.1066196e-03 
7.2731595e-03 1.0000000e-02 -1.0140047e-02 
-6.4148600e-05 0.0000000e+00 -4.4525366e-03 
-1.0680180e-04 0.0000000e+00 -2.8088474e-03 
3.4513260e-04 0.0000000e+00 -6.0450544e-03 
1.3803532e-03 0.0000000e+00 -7.3230534e-03 
6.5829700e-05 0.0000000e+00 -1.1736922e-03 
2.9952540e-03 1.0000000e-02 5.7082181e-03 
8.8622628e-03 1.0000000e-02 -1.0562311e-02 
2.7142144e-03 0.0000000e+00 -8.2851896e-03 
5.0392030e-04 0.0000000e+00 6.5784910e-04 
4.1780764e-03 0.0000000e+00 -9.0342357e-03 
1.1628646e-03 0.0000000e+00 2.4220088e-03 
1.0466628e-02 1.0000000e-02 -1.0922252e-02 
4.1067238e-03 1.0000000e-02 7.2284501e-03 
5.7070961e-03 0.0000000e+00 -9.6390187e-03 
2.0046218e-03 0.0000000e+00 4.1066196e-03 
7.2731595e-03 0.0000000e+00 -1.0140047e-02 
1.2081579e-02 1.0000000e-02 -1.1231240e-02 
5.3166988e-03 1.0000000e-02 8.6715129e-03 
2.9952540e-03 0.0000000e+00 5.7082181e-03 
8.8622628e-03 0.0000000e+00 -1.0562311e-02 
1.3704120e-02 1.0000000e-02 -1.1497501e-02 
1.0466628e-02 0.0000000e+00 -1.0922252e-02 
4.1067238e-03 0.0000000e+00 7.2284501e-03 
6.6076374e-03 1.0000000e-02 1.0042624e-02 
1.5332244e-02 1.0000000e-02 -1.1727173e-02 
1.2081579e-02 0.0000000e+00 -1.1231240e-02 
5.3166988e-03 0.0000000e+00 8.6715129e-03 
7.9658343e-03 1.0000000e-02 1.1347144e-02 
1.3704120e-02 0.0000000e+00 -1.1497501e-02 
1.6964543e-02 1.0000000e-02 -1.1925002e-02 
6.6076374e-03 0.0000000e+00 1.0042624e-02 
9.3804686e-03 1.0000000e-02 1.2590236e-02 
1.5332244e-02 0.0000000e+00 -1.1727173e-02 
1.8600004e-02 1.0000000e-02 -1.2094716e-02 
7.9658343e-03 0.0000000e+00 1.1347144e-02 
1.6964543e-02 0.0000000e+00 -1.1925002e-02 
1.0843002e-02 1.0000000e-02 1.3776601e-02 
2.0237876e-02 1.0000000e-02 -1.2239318e-02 
9.3804686e-03 0.0000000e+00 1.2590236e-02 
1.8600004e-02 0.0000000e+00 -1.2094716e-02 
1.2346566e-02 1.0000000e-02 1.4910517e-02 
2.1877591e-02 1.0000000e-02 -1.2361246e-02 
1.0843002e-02 0.0000000e+00 1.3776601e-02 
2.0237876e-02 0.0000000e+00 -1.2239318e-02 
1.3885623e-02 1.0000000e-02 1.5995768e-02 
2.3518711e-02 1.0000000e-02 -1.2462540e-02 
1.2346566e-02 0.0000000e+00 1.4910517e-02 
2.1877591e-02 0.0000000e+00 -1.2361246e-02 
2.5160890e-02 1.0000000e-02 -1.2544903e-02 
1.5455654e-02 1.0000000e-02 1.7035707e-02 
1.3885623e-02 0.0000000e+00 1.5995768e-02 
2.3518711e-02 0.0000000e+00 -1.2462540e-02 
2.6803852e-02 1.0000000e-02 -1.2609772e-02 
1.7052912e-02 1.0000000e-02 1.8033321e-02 
2.5160890e-02 0.0000000e+00 -1.2544903e-02 
1.5455654e-02 0.0000000e+00 1.7035707e-02 
2.8447376e-02 1.0000000e-02 -1.2658389e-02 
2.6803852e-02 0.0000000e+00 -1.2609772e-02 
1.7052912e-02 0.0000000e+00 1.8033321e-02 
1.8674284e-02 1.0000000e-02 1.8991246e-02 
3.0091279e-02 1.0000000e-02 -1.2691814e-02 
2.8447376e-02 0.0000000e+00 -1.2658389e-02 
1.8674284e-02 0.0000000e+00 1.8991246e-02 
2.0317149e-02 1.0000000e-02 1.9911822e-02 
3.0091279e-02 0.0000000e+00 -1.2691814e-02 
3.1735410e-02 1.0000000e-02 -1.2710971e-02 
2.0317149e-02 0.0000000e+00 1.9911822e-02 
2.1979295e-02 1.0000000e-02 2.0797113e-02 
3.1735410e-02 0.0000000e+00 -1.2710971e-02 
3.3379643e-02 1.0000000e-02 -1.2716676e-02 
2.1979295e-02 0.0000000e+00 2.0797113e-02 
2.3658832e-02 1.0000000e-02 2.1648949e-02 
3.3379643e-02 0.0000000e+00 -1.2716676e-02 
3.5023871e-02 1.0000000e-02 -1.2709629e-02 
2.3658832e-02 0.0000000e+00 2.1648949e-02 
2.5354100e-02 1.0000000e-02 2.2469029e-02 
3.5023871e-02 0.0000000e+00 -1.2709629e-02 
3.6668001e-02 1.0000000e-02 -1.2690457e-02 
2.5354100e-02 0.0000000e+00 2.2469029e-02 
2.7063712e-02 1.0000000e-02 2.3258772e-02 
3.6668001e-02 0.0000000e+00 -1.2690457e-02 
3.8312016e-02 1.0000000e-02 -1.2663038e-02 
2.7063712e-02 0.0000000e+00 2.3258772e-02 
3.8312016e-02 0.0000000e+00 -1.2663038e-02 
2.8786417e-02 1.0000000e-02 2.4019532e-02 
3.9956032e-02 1.0000000e-02 -1.2635752e-02 
2.8786417e-02 0.0000000e+00 2.4019532e-02 
3.9956032e-02 0.0000000e+00 -1.2635752e-02 
3.0521135e-02 1.0000000e-02 2.4752486e-02 
4.1600048e-02 1.0000000e-02 -1.2608467e-02 
3.0521135e-02 0.0000000e+00 2.4752486e-02 
4.1600048e-02 0.0000000e+00 -1.2608467e-02 
3.2266919e-02 1.0000000e-02 2.5458676e-02 
4.3299814e-02 1.0000000e-02 -1.2580255e-02 
3.2266919e-02 0.0000000e+00 2.5458676e-02 
4.3299814e-02 0.0000000e+00 -1.2580255e-02 
3.4022902e-02 1.0000000e-02 2.6139111e-02 
4.5339533e-02 1.0000000e-02 -1.2546402e-02 
3.4022902e-02 0.0000000e+00 2.6139111e-02 
4.5339533e-02 0.0000000e+00 -1.2546402e-02 
3.5788340e-02 1.0000000e-02 2.6794623e-02 
4.7787196e-02 1.0000000e-02 -1.2505778e-02 
3.5788340e-02 0.0000000e+00 2.6794623e-02 
3.7562554e-02 1.0000000e-02 2.7425996e-02 
4.7787196e-02 0.0000000e+00 -1.2505778e-02 
3.7562554e-02 0.0000000e+00 2.7425996e-02 
3.9344928e-02 1.0000000e-02 2.8033950e-02 
5.0379113e-02 1.0000000e-02 -1.2462760e-02 
3.9344928e-02 0.0000000e+00 2.8033950e-02 
5.0379113e-02 0.0000000e+00 -1.2462760e-02 
4.1134916e-02 1.0000000e-02 2.8619109e-02 
5.2971029e-02 1.0000000e-02 -1.2419741e-02 
4.1134916e-02 0.0000000e+00 2.8619109e-02 
5.2971029e-02 0.0000000e+00 -1.2419741e-02 
4.2932026e-02 1.0000000e-02 2.9182016e-02 
4.2932026e-02 0.0000000e+00 2.9182016e-02 
5.5562946e-02 1.0000000e-02 -1.2376723e-02 
4.5339682e-02 1.0000000e-02 2.9899231e-02 
5.5562946e-02 0.0000000e+00 -1.2376723e-02 
4.5339682e-02 0.0000000e+00 2.9899231e-02 
5.8154863e-02 1.0000000e-02 -1.2333705e-02 
4.7758221e-02 1.0000000e-02 3.0578844e-02 
5.8154863e-02 0.0000000e+00 -1.2333705e-02 
4.7758221e-02 0.0000000e+00 3.0578844e-02 
6.0746779e-02 1.0000000e-02 -1.2290686e-02 
5.0186760e-02 1.0000000e-02 3.1221807e-02 
6.0746779e-02 0.0000000e+00 -1.2290686e-02 
5.0186760e-02 0.0000000e+00 3.1221807e-02 
6.3338696e-02 1.0000000e-02 -1.2247668e-02 
5.2624513e-02 1.0000000e-02 3.1828903e-02 
6.3338696e-02 0.0000000e+00 -1.2247668e-02 
5.2624513e-02 0.0000000e+00 3.1828903e-02 
5.5070762e-02 1.0000000e-02 3.2400804e-02 
6.5930613e-02 1.0000000e-02 -1.2204650e-02 
5.5070762e-02 0.0000000e+00 3.2400804e-02 
6.5930613e-02 0.0000000e+00 -1.2204650e-02 
5.7524847e-02 1.0000000e-02 3.2938082e-02 
6.8522529e-02 1.0000000e-02 -1.2161631e-02 
5.7524847e-02 0.0000000e+00 3.2938082e-02 
6.8522529e-02 0.0000000e+00 -1.2161631e-02 
5.9986169e-02 1.0000000e-02 3.3441170e-02 
7.1114446e-02 1.0000000e-02 -1.2118613e-02 
5.9986169e-02 0.0000000e+00 3.3441170e-02 
7.1114446e-02 0.0000000e+00 -1.2118613e-02 
6.2454163e-02 1.0000000e-02 3.3910436e-02 
6.2454163e-02 0.0000000e+00 3.3910436e-02 
7.3706362e-02 1.0000000e-02 -1.2075595e-02 
7.3706362e-02 0.0000000e+00 -1.2075595e-02 
6.4928303e-02 1.0000000e-02 3.4346139e-02 
6.4928303e-02 0.0000000e+00 3.4346139e-02 
7.6298279e-02 1.0000000e-02 -1.2032577e-02 
7.6298279e-02 0.0000000e+00 -1.2032577e-02 
6.7408092e-02 1.0000000e-02 3.4748446e-02 
6.7408092e-02 0.0000000e+00 3.4748446e-02 
7.8890196e-02 1.0000000e-02 -1.1989558e-02 
7.8890196e-02 0.0000000e+00 -1.1989558e-02 
6.9893057e-02 1.0000000e-02 3.5117436e-02 
6.9893057e-02 0.0000000e+00 3.5117436e-02 
8.1482112e-02 1.0000000e-02 -1.1946540e-02 
8.1482112e-02 0.0000000e+00 -1.1946540e-02 
7.2382742e-02 1.0000000e-02 3.5453098e-02 
7.2382742e-02 0.0000000e+00 3.5453098e-02 
8.4074029e-02 1.0000000e-02 -1.1903522e-02 
7.4876707e-02 1.0000000e-02 3.5755332e-02 
8.4074029e-02 0.0000000e+00 -1.1903522e-02 
7.4876707e-02 0.0000000e+00 3.5755332e-02 
8.6665946e-02 1.0000000e-02 -1.1860503e-02 
7.7374516e-02 1.0000000e-02 3.6023948e-02 
8.6665946e-02 0.0000000e+00 -1.1860503e-02 
7.7374516e-02 0.0000000e+00 3.6023948e-02 
8.9257862e-02 1.0000000e-02 -1.1817485e-02 
7.9875738e-02 1.0000000e-02 3.6258665e-02 
8.9257862e-02 0.0000000e+00 -1.1817485e-02 
7.9875738e-02 0.0000000e+00 3.6258665e-02 
8.2379940e-02 1.0000000e-02 3.6459105e-02 
9.1849779e-02 1.0000000e-02 -1.1774467e-02 
8.2379940e-02 0.0000000e+00 3.6459105e-02 
9.1849779e-02 0.0000000e+00 -1.1774467e-02 
8.4886681e-02 1.0000000e-02 3.6624786e-02 
9.4441696e-02 1.0000000e-02 -1.1731448e-02 
8.4886681e-02 0.0000000e+00 3.6624786e-02 
9.4441696e-02 0.0000000e+00 -1.1731448e-02 
8.7395510e-02 1.0000000e-02 3.6755108e-02 
8.7395510e-02 0.0000000e+00 3.6755108e-02 
9.7033612e-02 1.0000000e-02 -1.1688430e-02 
9.7033612e-02 0.0000000e+00 -1.1688430e-02 
8.9905951e-02 1.0000000e-02 3.6849401e-02 
8.9905951e-02 0.0000000e+00 3.6849401e-02 
9.9625529e-02 1.0000000e-02 -1.1645412e-02 
9.9625529e-02 0.0000000e+00 -1.1645412e-02 
9.2417505e-02 1.0000000e-02 3.6906832e-02 
9.2417505e-02 0.0000000e+00 3.6906832e-02 
1.0221745e-01 1.0000000e-02 -1.1602393e-02 
1.0221745e-01 0.0000000e+00 -1.1602393e-02 
9.4929640e-02 1.0000000e-02 3.6926425e-02 
9.4929640e-02 0.0000000e+00 3.6926425e-02 
1.0480936e-01 1.0000000e-02 -1.1559375e-02 
1.0480936e-01 0.0000000e+00 -1.1559375e-02 
9.7441776e-02 1.0000000e-02 3.6907077e-02 
9.7441776e-02 0.0000000e+00 3.6907077e-02 
1.0740128e-01 1.0000000e-02 -1.1516357e-02 
1.0740128e-01 0.0000000e+00 -1.1516357e-02 
9.9953281e-02 1.0000000e-02 3.6847529e-02 
9.9953281e-02 0.0000000e+00 3.6847529e-02 
1.0999320e-01 1.0000000e-02 -1.1473339e-02 
1.0246345e-01 1.0000000e-02 3.6746314e-02 
1.0999320e-01 0.0000000e+00 -1.1473339e-02 
1.0246345e-01 0.0000000e+00 3.6746314e-02 
1.0497150e-01 1.0000000e-02 3.6601738e-02 
1.1258511e-01 1.0000000e-02 -1.1430320e-02 
1.0497150e-01 0.0000000e+00 3.6601738e-02 
1.1258511e-01 0.0000000e+00 -1.1430320e-02 
1.0747666e-01 1.0000000e-02 3.6413638e-02 
1.1517703e-01 1.0000000e-02 -1.1387302e-02 
1.0747666e-01 0.0000000e+00 3.6413638e-02 
[...]
POINT_DATA 824
FIELD FieldData 2
DISPLACEMENT 3 824  float
0.0000000e+00 0.0000000e+00 0.0000000e+00 
0.0000000e+00 0.0000000e+00 0.0000000e+00 
0.0000000e+00 0.0000000e+00 0.0000000e+00 
0.0000000e+00 0.0000000e+00 0.0000000e+00 
0.0000000e+00 0.0000000e+00 0.0000000e+00 
0.0000000e+00 0.0000000e+00 0.0000000e+00 
0.0000000e+00 0.0000000e+00 0.0000000e+00 
0.0000000e+00 0.0000000e+00 0.0000000e+00 
0.0000000e+00 0.0000000e+00 0.0000000e+00 
0.0000000e+00 0.0000000e+00 0.0000000e+00 
0.0000000e+00 0.0000000e+00 0.0000000e+00 
0.0000000e+00 0.0000000e+00 0.0000000e+00 
0.0000000e+00 0.0000000e+00 0.0000000e+00 
0.0000000e+00 0.0000000e+00 0.0000000e+00 
0.0000000e+00 0.0000000e+00 0.0000000e+00 
0.0000000e+00 0.0000000e+00 0.0000000e+00 
0.0000000e+00 0.0000000e+00 0.0000000e+00 
0.0000000e+00 0.0000000e+00 0.0000000e+00 
0.0000000e+00 0.0000000e+00 0.0000000e+00 
0.0000000e+00 0.0000000e+00 0.0000000e+00 
0.0000000e+00 0.0000000e+00 0.0000000e+00 
0.0000000e+00 0.0000000e+00 0.0000000e+00 
0.0000000e+00 0.0000000e+00 0.0000000e+00 
0.0000000e+00 0.0000000e+00 0.0000000e+00 
0.0000000e+00 0.0000000e+00 0.0000000e+00 
0.0000000e+00 0.0000000e+00 0.0000000e+00 
0.0000000e+00 0.0000000e+00 0.0000000e+00 
0.0000000e+00 0.0000000e+00 0.0000000e+00 
0.0000000e+00 0.0000000e+00 0.0000000e+00 
0.0000000e+00 0.0000000e+00 0.0000000e+00 
0.0000000e+00 0.0000000e+00 0.0000000e+00 
0.0000000e+00 0.0000000e+00 0.0000000e+00 
0.0000000e+00 0.0000000e+00 0.0000000e+00 
0.0000000e+00 0.0000000e+00 0.0000000e+00 
0.0000000e+00 0.0000000e+00 0.0000000e+00 
0.0000000e+00 0.0000000e+00 0.0000000e+00 
0.0000000e+00 0.0000000e+00 0.0000000e+00 
0.0000000e+00 0.0000000e+00 0.0000000e+00 
0.0000000e+00 0.0000000e+00 0.0000000e+00 
0.0000000e+00 0.0000000e+00 0.0000000e+00 
0.0000000e+00 0.0000000e+00 0.0000000e+00 
0.0000000e+00 0.0000000e+00 0.0000000e+00 
0.0000000e+00 0.0000000e+00 0.0000000e+00 
0.0000000e+00 0.0000000e+00 0.0000000e+00 
0.0000000e+00 0.0000000e+00 0.0000000e+00 
0.0000000e+00 0.0000000e+00 0.0000000e+00 
0.0000000e+00 0.0000000e+00 0.0000000e+00 
0.0000000e+00 0.0000000e+00 0.0000000e+00 
0.0000000e+00 0.0000000e+00 0.0000000e+00 
0.0000000e+00 0.0000000e+00 0.0000000e+00 
0.0000000e+00 0.0000000e+00 0.0000000e+00 
0.0000000e+00 0.0000000e+00 0.0000000e+00 
0.0000000e+00 0.0000000e+00 0.0000000e+00 
0.0000000e+00 0.0000000e+00 0.0000000e+00 
0.0000000e+00 0.0000000e+00 0.0000000e+00 
0.0000000e+00 0.0000000e+00 0.0000000e+00 
0.0000000e+00 0.0000000e+00 0.0000000e+00 
0.0000000e+00 0.0000000e+00 0.0000000e+00 
0.0000000e+00 0.0000000e+00 0.0000000e+00 
0.0000000e+00 0.0000000e+00 0.0000000e+00 
0.0000000e+00 0.0000000e+00 0.0000000e+00 
0.0000000e+00 0.0000000e+00 0.0000000e+00 
0.0000000e+00 0.0000000e+00 0.0000000e+00 
0.0000000e+00 0.0000000e+00 0.0000000e+00 
0.0000000e+00 0.0000000e+00 0.0000000e+00 
0.0000000e+00 0.0000000e+00 0.0000000e+00 
0.0000000e+00 0.0000000e+00 0.0000000e+00 
0.0000000e+00 0.0000000e+00 0.0000000e+00 
0.0000000e+00 0.0000000e+00 0.0000000e+00 
0.0000000e+00 0.0000000e+00 0.0000000e+00 
0.0000000e+00 0.0000000e+00 0.0000000e+00 
0.0000000e+00 0.0000000e+00 0.0000000e+00 
0.0000000e+00 0.0000000e+00 0.0000000e+00 
0.0000000e+00 0.0000000e+00 0.0000000e+00 
0.0000000e+00 0.0000000e+00 0.0000000e+00 
0.0000000e+00 0.0000000e+00 0.0000000e+00 
0.0000000e+00 0.0000000e+00 0.0000000e+00 
0.0000000e+00 0.0000000e+00 0.0000000e+00 
0.0000000e+00 0.0000000e+00 0.0000000e+00 
0.0000000e+00 0.0000000e+00 0.0000000e+00 
0.0000000e+00 0.0000000e+00 0.0000000e+00 
0.0000000e+00 0.0000000e+00 0.0000000e+00 
0.0000000e+00 0.0000000e+00 0.0000000e+00 
0.0000000e+00 0.0000000e+00 0.0000000e+00 
0.0000000e+00 0.0000000e+00 0.0000000e+00 
0.0000000e+00 0.0000000e+00 0.0000000e+00 
0.0000000e+00 0.0000000e+00 0.0000000e+00 
0.0000000e+00 0.0000000e+00 0.0000000e+00 
0.0000000e+00 0.0000000e+00 0.0000000e+00 
0.0000000e+00 0.0000000e+00 0.0000000e+00 
0.0000000e+00 0.0000000e+00 0.0000000e+00 
0.0000000e+00 0.0000000e+00 0.0000000e+00 
0.0000000e+00 0.0000000e+00 0.0000000e+00 
0.0000000e+00 0.0000000e+00 0.0000000e+00 
0.0000000e+00 0.0000000e+00 0.0000000e+00 
0.0000000e+00 0.0000000e+00 0.0000000e+00 
0.0000000e+00 0.0000000e+00 0.0000000e+00 
-3.3191728e-05 0.0000000e+00 4.2556982e-04 
0.0000000e+00 0.0000000e+00 0.0000000e+00 
-3.3191728e-05 0.0000000e+00 4.2556982e-04 
0.0000000e+00 0.0000000e+00 0.0000000e+00 
-7.2179208e-05 0.0000000e+00 8.6813819e-04 
0.0000000e+00 0.0000000e+00 0.0000000e+00 
-7.2179208e-05 0.0000000e+00 8.6813819e-04 
0.0000000e+00 0.0000000e+00 0.0000000e+00 
-1.1632527e-04 0.0000000e+00 1.3369081e-03 
0.0000000e+00 0.0000000e+00 0.0000000e+00 
-1.1632527e-04 0.0000000e+00 1.3369081e-03 
0.0000000e+00 0.0000000e+00 0.0000000e+00 
-1.7334638e-04 0.0000000e+00 1.9112784e-03 
0.0000000e+00 0.0000000e+00 0.0000000e+00 
-1.7334638e-04 0.0000000e+00 1.9112784e-03 
0.0000000e+00 0.0000000e+00 0.0000000e+00 
-2.4618391e-04 0.0000000e+00 2.6132185e-03 
0.0000000e+00 0.0000000e+00 0.0000000e+00 
0.0000000e+00 0.0000000e+00 0.0000000e+00 
-2.4618391e-04 0.0000000e+00 2.6132185e-03 
0.0000000e+00 0.0000000e+00 0.0000000e+00 
1.1385778e-04 0.0000000e+00 -2.1185644e-04 
-3.2665842e-04 0.0000000e+00 3.3663300e-03 
1.1385778e-04 0.0000000e+00 -2.1185644e-04 
-3.2665842e-04 0.0000000e+00 3.3663300e-03 
2.2078029e-04 0.0000000e+00 -4.0470535e-04 
-4.1047650e-04 0.0000000e+00 4.1290676e-03 
2.2078029e-04 0.0000000e+00 -4.0470535e-04 
-4.1047650e-04 0.0000000e+00 4.1290676e-03 
3.2095869e-04 0.0000000e+00 -5.7747538e-04 
3.2095869e-04 0.0000000e+00 -5.7747538e-04 
-4.9676664e-04 0.0000000e+00 4.8985642e-03 
4.4431572e-04 0.0000000e+00 -7.7439948e-04 
-4.9676664e-04 0.0000000e+00 4.8985642e-03 
4.4431572e-04 0.0000000e+00 -7.7439948e-04 
-5.8425097e-04 0.0000000e+00 5.6714109e-03 
5.5637482e-04 0.0000000e+00 -9.3158809e-04 
-5.8425097e-04 0.0000000e+00 5.6714109e-03 
5.5637482e-04 0.0000000e+00 -9.3158809e-04 
-6.7295701e-04 0.0000000e+00 6.4476693e-03 
6.5811123e-04 0.0000000e+00 -1.0504229e-03 
-6.7295701e-04 0.0000000e+00 6.4476693e-03 
6.5811123e-04 0.0000000e+00 -1.0504229e-03 
-7.6218583e-04 0.0000000e+00 7.2253432e-03 
7.5003645e-04 0.0000000e+00 -1.1303055e-03 
-7.6218583e-04 0.0000000e+00 7.2253432e-03 
7.5003645e-04 0.0000000e+00 -1.1303055e-03 
8.3261717e-04 0.0000000e+00 -1.1707694e-03 
-8.5092484e-04 0.0000000e+00 8.0016075e-03 
8.3261717e-04 0.0000000e+00 -1.1707694e-03 
-8.5092484e-04 0.0000000e+00 8.0016075e-03 
9.0645259e-04 0.0000000e+00 -1.1721894e-03 
-9.3924889e-04 0.0000000e+00 8.7766620e-03 
9.0645259e-04 0.0000000e+00 -1.1721894e-03 
-9.3924889e-04 0.0000000e+00 8.7766620e-03 
9.7202162e-04 0.0000000e+00 -1.1345383e-03 
-1.0273347e-03 0.0000000e+00 9.5510692e-03 
9.7202162e-04 0.0000000e+00 -1.1345383e-03 
-1.0273347e-03 0.0000000e+00 9.5510692e-03 
1.0298077e-03 0.0000000e+00 -1.0579448e-03 
1.0298077e-03 0.0000000e+00 -1.0579448e-03 
-1.1134262e-03 0.0000000e+00 1.0319781e-02 
-1.1134262e-03 0.0000000e+00 1.0319781e-02 
1.0803821e-03 0.0000000e+00 -9.4287046e-04 
1.0803821e-03 0.0000000e+00 -9.4287046e-04 
-1.1976964e-03 0.0000000e+00 1.1083232e-02 
-1.1976964e-03 0.0000000e+00 1.1083232e-02 
1.1241012e-03 0.0000000e+00 -7.8893448e-04 
1.1241012e-03 0.0000000e+00 -7.8893448e-04 
-1.2803123e-03 0.0000000e+00 1.1842084e-02 
-1.2803123e-03 0.0000000e+00 1.1842084e-02 
1.1612372e-03 0.0000000e+00 -5.9563814e-04 
1.1612372e-03 0.0000000e+00 -5.9563814e-04 
-1.3598194e-03 0.0000000e+00 1.2591847e-02 
-1.3598194e-03 0.0000000e+00 1.2591847e-02 
1.1924227e-03 0.0000000e+00 -3.6363521e-04 
1.1924227e-03 0.0000000e+00 -3.6363521e-04 
-1.4364632e-03 0.0000000e+00 1.3333110e-02 
1.2178356e-03 0.0000000e+00 -9.1842322e-05 
-1.4364632e-03 0.0000000e+00 1.3333110e-02 
1.2178356e-03 0.0000000e+00 -9.1842322e-05 
-1.5104235e-03 0.0000000e+00 1.4066644e-02 
1.2377143e-03 0.0000000e+00 2.2034027e-04 
-1.5104235e-03 0.0000000e+00 1.4066644e-02 
1.2377143e-03 0.0000000e+00 2.2034027e-04 
-1.5810836e-03 0.0000000e+00 1.4790548e-02 
1.2528499e-03 0.0000000e+00 5.7194485e-04 
-1.5810836e-03 0.0000000e+00 1.4790548e-02 
1.2528499e-03 0.0000000e+00 5.7194485e-04 
1.2632323e-03 0.0000000e+00 9.6489904e-04 
-1.6482277e-03 0.0000000e+00 1.5503599e-02 
1.2632323e-03 0.0000000e+00 9.6489904e-04 
-1.6482277e-03 0.0000000e+00 1.5503599e-02 
1.2686883e-03 0.0000000e+00 1.4015091e-03 
-1.7121323e-03 0.0000000e+00 1.6206897e-02 
1.2686883e-03 0.0000000e+00 1.4015091e-03 
-1.7121323e-03 0.0000000e+00 1.6206897e-02 
1.2707476e-03 0.0000000e+00 1.8786549e-03 
1.2707476e-03 0.0000000e+00 1.8786549e-03 
-1.7724980e-03 0.0000000e+00 1.6899374e-02 
-1.7724980e-03 0.0000000e+00 1.6899374e-02 
1.2691861e-03 0.0000000e+00 2.3993020e-03 
1.2691861e-03 0.0000000e+00 2.3993020e-03 
-1.8292638e-03 0.0000000e+00 1.7580197e-02 
-1.8292638e-03 0.0000000e+00 1.7580197e-02 
1.2637261e-03 0.0000000e+00 2.9664770e-03 
1.2637261e-03 0.0000000e+00 2.9664770e-03 
-1.8826241e-03 0.0000000e+00 1.8250235e-02 
-1.8826241e-03 0.0000000e+00 1.8250235e-02 
1.2555618e-03 0.0000000e+00 3.5787860e-03 
1.2555618e-03 0.0000000e+00 3.5787860e-03 
-1.9325280e-03 0.0000000e+00 1.8909135e-02 
-1.9325280e-03 0.0000000e+00 1.8909135e-02 
1.2453229e-03 0.0000000e+00 4.2372468e-03 
1.2453229e-03 0.0000000e+00 4.2372468e-03 
-1.9788634e-03 0.0000000e+00 1.9556329e-02 
-1.9788634e-03 0.0000000e+00 1.9556329e-02 
1.2327592e-03 0.0000000e+00 4.9455725e-03 
1.2327592e-03 0.0000000e+00 4.9455725e-03 
-2.0217727e-03 0.0000000e+00 2.0191606e-02 
1.2192521e-03 0.0000000e+00 5.7029350e-03 
-2.0217727e-03 0.0000000e+00 2.0191606e-02 
1.2192521e-03 0.0000000e+00 5.7029350e-03 
1.2064780e-03 0.0000000e+00 6.5083630e-03 
-2.0615807e-03 0.0000000e+00 2.0816304e-02 
1.2064780e-03 0.0000000e+00 6.5083630e-03 
-2.0615807e-03 0.0000000e+00 2.0816304e-02 
1.1939067e-03 0.0000000e+00 7.3657480e-03 
-2.0981899e-03 0.0000000e+00 2.1429893e-02 
1.1939067e-03 0.0000000e+00 7.3657480e-03 
-2.0981899e-03 0.0000000e+00 2.1429893e-02 
1.1802815e-03 0.0000000e+00 8.2416779e-03 
1.1802815e-03 0.0000000e+00 8.2416779e-03 
-2.1313290e-03 0.0000000e+00 2.2031186e-02 
-2.1313290e-03 0.0000000e+00 2.2031186e-02 
1.1656715e-03 0.0000000e+00 9.1207667e-03 
1.1656715e-03 0.0000000e+00 9.1207667e-03 
-2.1612468e-03 0.0000000e+00 2.2620369e-02 
-2.1612468e-03 0.0000000e+00 2.2620369e-02 
1.1490509e-03 0.0000000e+00 1.0005999e-02 
1.1490509e-03 0.0000000e+00 1.0005999e-02 
-2.1881370e-03 0.0000000e+00 2.3198341e-02 
-2.1881370e-03 0.0000000e+00 2.3198341e-02 
1.1312720e-03 0.0000000e+00 1.0894759e-02 
1.1312720e-03 0.0000000e+00 1.0894759e-02 
-2.2117043e-03 0.0000000e+00 2.3763726e-02 
-2.2117043e-03 0.0000000e+00 2.3763726e-02 
1.1134256e-03 0.0000000e+00 1.1783694e-02 
1.1134256e-03 0.0000000e+00 1.1783694e-02 
-2.2318301e-03 0.0000000e+00 2.4315669e-02 
-2.2318301e-03 0.0000000e+00 2.4315669e-02 
1.0950756e-03 0.0000000e+00 1.2674142e-02 
1.0950756e-03 0.0000000e+00 1.2674142e-02 
-2.2485589e-03 0.0000000e+00 2.4853645e-02 
1.0763536e-03 0.0000000e+00 1.3565717e-02 
-2.2485589e-03 0.0000000e+00 2.4853645e-02 
1.0763536e-03 0.0000000e+00 1.3565717e-02 
1.0582734e-03 0.0000000e+00 1.4455208e-02 
-2.2620606e-03 0.0000000e+00 2.5377990e-02 
1.0582734e-03 0.0000000e+00 1.4455208e-02 
-2.2620606e-03 0.0000000e+00 2.5377990e-02 
1.0403216e-03 0.0000000e+00 1.5344187e-02 
-2.2724179e-03 0.0000000e+00 2.5889058e-02 
1.0403216e-03 0.0000000e+00 1.5344187e-02 
-2.2724179e-03 0.0000000e+00 2.5889058e-02 
1.0218070e-03 0.0000000e+00 1.6234897e-02 
1.0218070e-03 0.0000000e+00 1.6234897e-02 
-2.2793950e-03 0.0000000e+00 2.6385310e-02 
-2.2793950e-03 0.0000000e+00 2.6385310e-02 
1.0044722e-03 0.0000000e+00 1.7121764e-02 
1.0044722e-03 0.0000000e+00 1.7121764e-02 
-2.2831288e-03 0.0000000e+00 2.6866879e-02 
-2.2831288e-03 0.0000000e+00 2.6866879e-02 
9.8781934e-04 0.0000000e+00 1.8006313e-02 
9.8781934e-04 0.0000000e+00 1.8006313e-02 
-2.2836968e-03 0.0000000e+00 2.7333620e-02 
-2.2836968e-03 0.0000000e+00 2.7333620e-02 
9.7145727e-04 0.0000000e+00 1.8889951e-02 
9.7145727e-04 0.0000000e+00 1.8889951e-02 
-2.2811348e-03 0.0000000e+00 2.7784927e-02 
-2.2811348e-03 0.0000000e+00 2.7784927e-02 
9.5672216e-04 0.0000000e+00 1.9768408e-02 
9.5672216e-04 0.0000000e+00 1.9768408e-02 
-2.2756426e-03 0.0000000e+00 2.8221285e-02 
-2.2756426e-03 0.0000000e+00 2.8221285e-02 
9.4408778e-04 0.0000000e+00 2.0639798e-02 
9.4408778e-04 0.0000000e+00 2.0639798e-02 
-2.2672992e-03 0.0000000e+00 2.8642720e-02 
-2.2672992e-03 0.0000000e+00 2.8642720e-02 
9.3323409e-04 0.0000000e+00 2.1505085e-02 
9.3323409e-04 0.0000000e+00 2.1505085e-02 
-2.2561007e-03 0.0000000e+00 2.9048630e-02 
-2.2561007e-03 0.0000000e+00 2.9048630e-02 
9.2387502e-04 0.0000000e+00 2.2365445e-02 
9.2387502e-04 0.0000000e+00 2.2365445e-02 
-2.2423086e-03 0.0000000e+00 2.9439740e-02 
9.1719485e-04 0.0000000e+00 2.3216806e-02 
-2.2423086e-03 0.0000000e+00 2.9439740e-02 
9.1719485e-04 0.0000000e+00 2.3216806e-02 
-2.2260207e-03 0.0000000e+00 2.9816024e-02 
9.1350618e-04 0.0000000e+00 2.4057544e-02 
-2.2260207e-03 0.0000000e+00 2.9816024e-02 
9.1350618e-04 0.0000000e+00 2.4057544e-02 
9.1241779e-04 0.0000000e+00 2.4888846e-02 
-2.2072494e-03 0.0000000e+00 3.0176940e-02 
9.1241779e-04 0.0000000e+00 2.4888846e-02 
-2.2072494e-03 0.0000000e+00 3.0176940e-02 
9.1367186e-04 0.0000000e+00 2.5711859e-02 
9.1367186e-04 0.0000000e+00 2.5711859e-02 
-2.1861354e-03 0.0000000e+00 3.0522876e-02 
-2.1861354e-03 0.0000000e+00 3.0522876e-02 
9.1813682e-04 0.0000000e+00 2.6523237e-02 
9.1813682e-04 0.0000000e+00 2.6523237e-02 
-2.1629073e-03 0.0000000e+00 3.0854502e-02 
-2.1629073e-03 0.0000000e+00 3.0854502e-02 
9.2609571e-04 0.0000000e+00 2.7321659e-02 
9.2609571e-04 0.0000000e+00 2.7321659e-02 
-2.1375791e-03 0.0000000e+00 3.1171281e-02 
-2.1375791e-03 0.0000000e+00 3.1171281e-02 
9.3768665e-04 0.0000000e+00 2.8105807e-02 
9.3768665e-04 0.0000000e+00 2.8105807e-02 
-2.1102833e-03 0.0000000e+00 3.1473499e-02 
-2.1102833e-03 0.0000000e+00 3.1473499e-02 
9.5240849e-04 0.0000000e+00 2.8877718e-02 
9.5240849e-04 0.0000000e+00 2.8877718e-02 
-2.0812477e-03 0.0000000e+00 3.1762423e-02 
-2.0812477e-03 0.0000000e+00 3.1762423e-02 
9.7052469e-04 0.0000000e+00 2.9636026e-02 
9.7052469e-04 0.0000000e+00 2.9636026e-02 
-2.0504442e-03 0.0000000e+00 3.2036950e-02 
-2.0504442e-03 0.0000000e+00 3.2036950e-02 
9.9240850e-04 0.0000000e+00 3.0378809e-02 
9.9240850e-04 0.0000000e+00 3.0378809e-02 
-2.0179843e-03 0.0000000e+00 3.2297302e-02 
-2.0179843e-03 0.0000000e+00 3.2297302e-02 
1.0180505e-03 0.0000000e+00 3.1105090e-02 
1.0180505e-03 0.0000000e+00 3.1105090e-02 
-1.9840897e-03 0.0000000e+00 3.2544756e-02 
-1.9840897e-03 0.0000000e+00 3.2544756e-02 
1.0469479e-03 0.0000000e+00 3.1817054e-02 
1.0469479e-03 0.0000000e+00 3.1817054e-02 
-1.9487549e-03 0.0000000e+00 3.2778877e-02 
-1.9487549e-03 0.0000000e+00 3.2778877e-02 
1.0793206e-03 0.0000000e+00 3.2513244e-02 
1.0793206e-03 0.0000000e+00 3.2513244e-02 
-1.9120440e-03 0.0000000e+00 3.2999200e-02 
-1.9120440e-03 0.0000000e+00 3.2999200e-02 
1.1153285e-03 0.0000000e+00 3.3192347e-02 
1.1153285e-03 0.0000000e+00 3.3192347e-02 
-1.8741421e-03 0.0000000e+00 3.3206893e-02 
-1.8741421e-03 0.0000000e+00 3.3206893e-02 
1.1548750e-03 0.0000000e+00 3.3854185e-02 
1.1548750e-03 0.0000000e+00 3.3854185e-02 
-1.8350862e-03 0.0000000e+00 3.3402038e-02 
1.1980254e-03 0.0000000e+00 3.4497032e-02 
-1.8350862e-03 0.0000000e+00 3.3402038e-02 
1.1980254e-03 0.0000000e+00 3.4497032e-02 
1.2444333e-03 0.0000000e+00 3.5121937e-02 
-1.7949117e-03 0.0000000e+00 3.3584293e-02 
1.2444333e-03 0.0000000e+00 3.5121937e-02 
-1.7949117e-03 0.0000000e+00 3.3584293e-02 
1.2939331e-03 0.0000000e+00 3.5729646e-02 
-1.7537635e-03 0.0000000e+00 3.3754110e-02 
1.2939331e-03 0.0000000e+00 3.5729646e-02 
-1.7537635e-03 0.0000000e+00 3.3754110e-02 
1.3466024e-03 0.0000000e+00 3.6318902e-02 
1.3466024e-03 0.0000000e+00 3.6318902e-02 
-1.7117471e-03 0.0000000e+00 3.3912094e-02 
-1.7117471e-03 0.0000000e+00 3.3912094e-02 
1.4024590e-03 0.0000000e+00 3.6888465e-02 
1.4024590e-03 0.0000000e+00 3.6888465e-02 
-1.6688407e-03 0.0000000e+00 3.4057617e-02 
-1.6688407e-03 0.0000000e+00 3.4057617e-02 
1.4613387e-03 0.0000000e+00 3.7438286e-02 
1.4613387e-03 0.0000000e+00 3.7438286e-02 
-1.6251690e-03 0.0000000e+00 3.4190990e-02 
-1.6251690e-03 0.0000000e+00 3.4190990e-02 
1.5230522e-03 0.0000000e+00 3.7968041e-02 
1.5230522e-03 0.0000000e+00 3.7968041e-02 
-1.5808117e-03 0.0000000e+00 3.4312559e-02 
-1.5808117e-03 0.0000000e+00 3.4312559e-02 
1.5874020e-03 0.0000000e+00 3.8478292e-02 
1.5874020e-03 0.0000000e+00 3.8478292e-02 
-1.5358158e-03 0.0000000e+00 3.4422138e-02 
-1.5358158e-03 0.0000000e+00 3.4422138e-02 
1.6542362e-03 0.0000000e+00 3.8968936e-02 
1.6542362e-03 0.0000000e+00 3.8968936e-02 
-1.4902387e-03 0.0000000e+00 3.4520506e-02 
-1.4902387e-03 0.0000000e+00 3.4520506e-02 
1.7234347e-03 0.0000000e+00 3.9439575e-02 
1.7234347e-03 0.0000000e+00 3.9439575e-02 
-1.4441448e-03 0.0000000e+00 3.4606974e-02 
-1.4441448e-03 0.0000000e+00 3.4606974e-02 
1.7948621e-03 0.0000000e+00 3.9889883e-02 
1.7948621e-03 0.0000000e+00 3.9889883e-02 
-1.3975937e-03 0.0000000e+00 3.4681618e-02 
-1.3975937e-03 0.0000000e+00 3.4681618e-02 
1.8682748e-03 0.0000000e+00 4.0320295e-02 
1.8682748e-03 0.0000000e+00 4.0320295e-02 
-1.3506310e-03 0.0000000e+00 3.4745273e-02 
-1.3506310e-03 0.0000000e+00 3.4745273e-02 
1.9434529e-03 0.0000000e+00 4.0731269e-02 
1.9434529e-03 0.0000000e+00 4.0731269e-02 
-1.3033414e-03 0.0000000e+00 3.4797730e-02 
-1.3033414e-03 0.0000000e+00 3.4797730e-02 
2.0202274e-03 0.0000000e+00 4.1123010e-02 
2.0202274e-03 0.0000000e+00 4.1123010e-02 
-1.2557947e-03 0.0000000e+00 3.4839816e-02 
-1.2557947e-03 0.0000000e+00 3.4839816e-02 
2.0984617e-03 0.0000000e+00 4.1495571e-02 
2.0984617e-03 0.0000000e+00 4.1495571e-02 
-1.2080399e-03 0.0000000e+00 3.4871858e-02 
-1.2080399e-03 0.0000000e+00 3.4871858e-02 
2.1779484e-03 0.0000000e+00 4.1849520e-02 
2.1779484e-03 0.0000000e+00 4.1849520e-02 
-1.1600709e-03 0.0000000e+00 3.4893176e-02 
-1.1600709e-03 0.0000000e+00 3.4893176e-02 
2.2581097e-03 0.0000000e+00 4.2184076e-02 
2.2581097e-03 0.0000000e+00 4.2184076e-02 
-1.1118462e-03 0.0000000e+00 3.4904071e-02 
-1.1118462e-03 0.0000000e+00 3.4904071e-02 
2.3554961e-03 0.0000000e+00 4.2562936e-02 
2.3554961e-03 0.0000000e+00 4.2562936e-02 
-1.0538498e-03 0.0000000e+00 3.4905567e-02 
-1.0538498e-03 0.0000000e+00 3.4905567e-02 
2.4737960e-03 0.0000000e+00 4.2985241e-02 
2.4737960e-03 0.0000000e+00 4.2985241e-02 
-9.8421165e-04 0.0000000e+00 3.4887003e-02 
-9.8421165e-04 0.0000000e+00 3.4887003e-02 
2.6173326e-03 0.0000000e+00 4.3446005e-02 
2.6173326e-03 0.0000000e+00 4.3446005e-02 
-9.0148135e-04 0.0000000e+00 3.4844553e-02 
-9.0148135e-04 0.0000000e+00 3.4844553e-02 
2.7697321e-03 0.0000000e+00 4.3883632e-02 
2.7697321e-03 0.0000000e+00 4.3883632e-02 
-8.1883940e-04 0.0000000e+00 3.4781317e-02 
-8.1883940e-04 0.0000000e+00 3.4781317e-02 
2.9227677e-03 0.0000000e+00 4.4273737e-02 
2.9227677e-03 0.0000000e+00 4.4273737e-02 
-7.3649688e-04 0.0000000e+00 3.4695105e-02 
-7.3649688e-04 0.0000000e+00 3.4695105e-02 
3.0759663e-03 0.0000000e+00 4.4621082e-02 
3.0759663e-03 0.0000000e+00 4.4621082e-02 
-6.5439703e-04 0.0000000e+00 3.4591365e-02 
-6.5439703e-04 0.0000000e+00 3.4591365e-02 
3.2289267e-03 0.0000000e+00 4.4925559e-02 
3.2289267e-03 0.0000000e+00 4.4925559e-02 
-5.7264982e-04 0.0000000e+00 3.4468352e-02 
-5.7264982e-04 0.0000000e+00 3.4468352e-02 
3.3812932e-03 0.0000000e+00 4.5188656e-02 
3.3812932e-03 0.0000000e+00 4.5188656e-02 
-4.9133692e-04 0.0000000e+00 3.4326090e-02 
-4.9133692e-04 0.0000000e+00 3.4326090e-02 
3.5327725e-03 0.0000000e+00 4.5412609e-02 
3.5327725e-03 0.0000000e+00 4.5412609e-02 
-4.1051077e-04 0.0000000e+00 3.4165418e-02 
-4.1051077e-04 0.0000000e+00 3.4165418e-02 
3.6829728e-03 0.0000000e+00 4.5595948e-02 
3.6829728e-03 0.0000000e+00 4.5595948e-02 
-3.3026293e-04 0.0000000e+00 3.3985808e-02 
-3.3026293e-04 0.0000000e+00 3.3985808e-02 