# vtk DataFile Version 4.0
vtk output
ASCII
DATASET UNSTRUCTURED_GRID
POINTS 824 float
-6.4148600e-05 1.0000000e-02 -4.4525366e-03 
-1.0680180e-04 1.0000000e-02 -2.8088474e-03 
3.4513260e-04 1.0000000e-02 -6.0450544e-03 
1.3803532e-03 1.0000000e-02 -7.3230534e-03 
6.5829700e-05 1.0000000e-02 -1.1736922e-03 
2.7142144e-03 1.0000000e-02 -8.2851896e-03 
5.0392030e-04 1.0000000e-02 6.5784910e-04 
4.1780764e-03 1.0000000e-02 -9.0342357e-03 
1.1628646e-03 1.0000000e-02 2.4220088e-03 
5.7070961e-03 1.0000000e-02 -9.6390187e-03 
2.0046218e-03 1.0000000e-02 4.1066196e-03 
7.2731595e-03 1.0000000e-02 -1.0140047e-02 
-6.4148600e-05 0.0000000e+00 -4.4525366e-03 
-1.0680180e-04 0.0000000e+00 -2.8088474e-03 
3.4513260e-04 0.0000000e+00 -6.0450544e-03 
1.3803532e-03 0.0000000e+00 -7.3230534e-03 
6.5829700e-05 0.0000000e+00 -1.1736922e-03 
2.9952540e-03 1.0000000e-02 5.7082181e-03 
8.8622628e-03 1.0000000e-02 -1.0562311e-02 
2.7142144e-03 0.0000000e+00 -8.2851896e-03 
5.0392030e-04 0.0000000e+00 6.5784910e-04 
4.1780764e-03 0.0000000e+00 -9.0342357e-03 
1.1628646e-03 0.0000000e+00 2.4220088e-03 
1.0466628e-02 1.0000000e-02 -1.0922252e-02 
4.1067238e-03 1.0000000e-02 7.2284501e-03 
5.7070961e-03 0.0000000e+00 -9.6390187e-03 
2.0046218e-03 0.0000000e+00 4.1066196e-03 
7.2731595e-03 0.0000000e+00 -1.0140047e-02 
1.2081579e-02 1.0000000e-02 -1.1231240e-02 
5.3166988e-03 1.0000000e-02 8.6715129e-03 
2.9952540e-03 0.0000000e+00 5.7082181e-03 
8.8622628e-03 0.0000000e+00 -1.0562311e-02 
1.3704120e-02 1.0000000e-02 -1.1497501e-02 
1.0466628e-02 0.0000000e+00 -1.0922252e-02 
4.1067238e-03 0.0000000e+00 7.2284501e-03 
6.6076374e-03 1.0000000e-02 1.0042624e-02 
1.5332244e-02 1.0000000e-02 -1.1727173e-02 
1.2081579e-02 0.0000000e+00 -1.1231240e-02 
5.3166988e-03 0.0000000e+00 8.6715129e-03 
7.9658343e-03 1.0000000e-02 1.1347144e-02 
1.3704120e-02 0.0000000e+00 -1.1497501e-02 
1.6964543e-02 1.0000000e-02 -1.1925002e-02 
6.6076374e-03 0.0000000e+00 1.0042624e-02 
9.3804686e-03 1.0000000e-02 1.2590236e-02 
1.5332244e-02 0.0000000e+00 -1.1727173e-02 
1.8600004e-02 1.0000000e-02 -1.2094716e-02 
7.9658343e-03 0.0000000e+00 1.1347144e-02 
1.6964543e-02 0.0000000e+00 -1.1925002e-02 
1.0843002e-02 1.0000000e-02 1.3776601e-02 
2.0237876e-02 1.0000000e-02 -1.2239318e-02 
9.3804686e-03 0.0000000e+00 1.2590236e-02 
1.8600004e-02 0.0000000e+00 -1.2094716e-02 
1.2346566e-02 1.0000000e-02 1.4910517e-02 
2.1877591e-02 1.0000000e-02 -1.2361246e-02 
1.0843002e-02 0.0000000e+00 1.3776601e-02 
2.0237876e-02 0.0000000e+00 -1.2239318e-02 
1.3885623e-02 1.0000000e-02 1.5995768e-02 
2.3518711e-02 1.0000000e-02 -1.2462540e-02 
1.2346566e-02 0.0000000e+00 1.4910517e-02 
2.1877591e-02 0.0000000e+00 -1.2361246e-02 
2.5160890e-02 1.0000000e-02 -1.2544903e-02 
1.5455654e-02 1.0000000e-02 1.7035707e-02 
1.3885623e-02 0.0000000e+00 1.5995768e-02 
2.3518711e-02 0.0000000e+00 -1.2462540e-02 
2.6803852e-02 1.0000000e-02 -1.2609772e-02 
1.7052912e-02 1.0000000e-02 1.8033321e-02 
2.5160890e-02 0.0000000e+00 -1.2544903e-02 
1.5455654e-02 0.0000000e+00 1.7035707e-02 
2.8447376e-02 1.0000000e-02 -1.2658389e-02 
2.6803852e-02 0.0000000e+00 -1.2609772e-02 
1.7052912e-02 0.0000000e+00 1.8033321e-02 
1.8674284e-02 1.0000000e-02 1.8991246e-02 
3.0091279e-02 1.0000000e-02 -1.2691814e-02 
2.8447376e-02 0.0000000e+00 -1.2658389e-02 
1.8674284e-02 0.0000000e+00 1.8991246e-02 
2.0317149e-02 1.0000000e-02 1.9911822e-02 
3.0091279e-02 0.0000000e+00 -1.2691814e-02 
3.1735410e-02 1.0000000e-02 -1.2710971e-02 
2.0317149e-02 0.0000000e+00 1.9911822e-02 
2.1979295e-02 1.0000000e-02 2.0797113e-02 
3.1735410e-02 0.0000000e+00 -1.2710971e-02 
3.3379643e-02 1.0000000e-02 -1.2716676e-02 
2.1979295e-02 0.0000000e+00 2.0797113e-02 
2.3658832e-02 1.0000000e-02 2.1648949e-02 
3.3379643e-02 0.0000000e+00 -1.2716676e-02 
3.5023871e-02 1.0000000e-02 -1.2709629e-02 
2.3658832e-02 0.0000000e+00 2.1648949e-02 
2.5354100e-02 1.0000000e-02 2.2469029e-02 
3.5023871e-02 0.0000000e+00 -1.2709629e-02 
3.6668001e-02 1.0000000e-02 -1.2690457e-02 
2.5354100e-02 0.0000000e+00 2.2469029e-02 
2.7063712e-02 1.0000000e-02 2.3258772e-02 
3.6668001e-02 0.0000000e+00 -1.2690457e-02 
3.8312016e-02 1.0000000e-02 -1.2663038e-02 
2.7063712e-02 0.0000000e+00 2.3258772e-02 
3.8312016e-02 0.0000000e+00 -1.2663038e-02 
2.8786417e-02 1.0000000e-02 2.4019532e-02 
3.9956032e-02 1.0000000e-02 -1.2635752e-02 
2.8786417e-02 0.0000000e+00 2.4019532e-02 
3.9956032e-02 0.0000000e+00 -1.2635752e-02 
3.0521135e-02 1.0000000e-02 2.4752486e-02 
4.1600048e-02 1.0000000e-02 -1.2608467e-02 
3.0521135e-02 0.0000000e+00 2.4752486e-02 
4.1600048e-02 0.0000000e+00 -1.2608467e-02 
3.2266919e-02 1.0000000e-02 2.5458676e-02 
4.3299814e-02 1.0000000e-02 -1.2580255e-02 
3.2266919e-02 0.0000000e+00 2.5458676e-02 
4.3299814e-02 0.0000000e+00 -1.2580255e-02 
3.4022902e-02 1.0000000e-02 2.6139111e-02 
4.5339533e-02 1.0000000e-02 -1.2546402e-02 
3.4022902e-02 0.0000000e+00 2.6139111e-02 
4.5339533e-02 0.0000000e+00 -1.2546402e-02 
3.5788340e-02 1.0000000e-02 2.6794623e-02 
4.7787196e-02 1.0000000e-02 -1.2505778e-02 
3.5788340e-02 0.0000000e+00 2.6794623e-02 
3.7562554e-02 1.0000000e-02 2.7425996e-02 
4.7787196e-02 0.0000000e+00 -1.2505778e-02 
3.7562554e-02 0.0000000e+00 2.7425996e-02 
3.9344928e-02 1.0000000e-02 2.8033950e-02 
5.0379113e-02 1.0000000e-02 -1.2462760e-02 
3.9344928e-02 0.0000000e+00 2.8033950e-02 
5.0379113e-02 0.0000000e+00 -1.2462760e-02 
4.1134916e-02 1.0000000e-02 2.8619109e-02 
5.2971029e-02 1.0000000e-02 -1.2419741e-02 
4.1134916e-02 0.0000000e+00 2.8619109e-02 
5.2971029e-02 0.0000000e+00 -1.2419741e-02 
4.2932026e-02 1.0000000e-02 2.9182016e-02 
4.2932026e-02 0.0000000e+00 2.9182016e-02 
5.5562946e-02 1.0000000e-02 -1.2376723e-02 
4.5339682e-02 1.0000000e-02 2.9899231e-02 
5.5562946e-02 0.0000000e+00 -1.2376723e-02 
4.5339682e-02 0.0000000e+00 2.9899231e-02 
5.8154863e-02 1.0000000e-02 -1.2333705e-02 
4.7758221e-02 1.0000000e-02 3.0578844e-02 
5.8154863e-02 0.0000000e+00 -1.2333705e-02 
4.7758221e-02 0.0000000e+00 3.0578844e-02 
6.0746779e-02 1.0000000e-02 -1.2290686e-02 
5.0186760e-02 1.0000000e-02 3.1221807e-02 
6.0746779e-02 0.0000000e+00 -1.2290686e-02 
5.0186760e-02 0.0000000e+00 3.1221807e-02 
6.3338696e-02 1.0000000e-02 -1.2247668e-02 
5.2624513e-02 1.0000000e-02 3.1828903e-02 
6.3338696e-02 0.0000000e+00 -1.2247668e-02 
5.2624513e-02 0.0000000e+00 3.1828903e-02 
5.5070762e-02 1.0000000e-02 3.2400804e-02 
6.5930613e-02 1.0000000e-02 -1.2204650e-02 
5.5070762e-02 0.0000000e+00 3.2400804e-02 
6.5930613e-02 0.0000000e+00 -1.2204650e-02 
5.7524847e-02 1.0000000e-02 3.2938082e-02 
6.8522529e-02 1.0000000e-02 -1.2161631e-02 
5.7524847e-02 0.0000000e+00 3.2938082e-02 
6.8522529e-02 0.0000000e+00 -1.2161631e-02 
5.9986169e-02 1.0000000e-02 3.3441170e-02 
7.1114446e-02 1.0000000e-02 -1.2118613e-02 
5.9986169e-02 0.0000000e+00 3.3441170e-02 
7.1114446e-02 0.0000000e+00 -1.2118613e-02 
6.2454163e-02 1.0000000e-02 3.3910436e-02 
6.2454163e-02 0.0000000e+00 3.3910436e-02 
7.3706362e-02 1.0000000e-02 -1.2075595e-02 
7.3706362e-02 0.0000000e+00 -1.2075595e-02 
6.4928303e-02 1.0000000e-02 3.4346139e-02 
6.4928303e-02 0.0000000e+00 3.4346139e-02 
7.6298279e-02 1.0000000e-02 -1.2032577e-02 
7.6298279e-02 0.0000000e+00 -1.2032577e-02 
6.7408092e-02 1.0000000e-02 3.4748446e-02 
6.7408092e-02 0.0000000e+00 3.4748446e-02 
7.8890196e-02 1.0000000e-02 -1.1989558e-02 
7.8890196e-02 0.0000000e+00 -1.1989558e-02 
6.9893057e-02 1.0000000e-02 3.5117436e-02 
6.9893057e-02 0.0000000e+00 3.5117436e-02 
8.1482112e-02 1.0000000e-02 -1.1946540e-02 
8.1482112e-02 0.0000000e+00 -1.1946540e-02 
7.2382742e-02 1.0000000e-02 3.5453098e-02 
7.2382742e-02 0.0000000e+00 3.5453098e-02 
8.4074029e-02 1.0000000e-02 -1.1903522e-02 
7.4876707e-02 1.0000000e-02 3.5755332e-02 
8.4074029e-02 0.0000000e+00 -1.1903522e-02 
7.4876707e-02 0.0000000e+00 3.5755332e-02 
8.6665946e-02 1.0000000e-02 -1.1860503e-02 
7.7374516e-02 1.0000000e-02 3.6023948e-02 
8.6665946e-02 0.0000000e+00 -1.1860503e-02 
7.7374516e-02 0.0000000e+00 3.6023948e-02 
8.9257862e-02 1.0000000e-02 -1.1817485e-02 
7.9875738e-02 1.0000000e-02 3.6258665e-02 
8.9257862e-02 0.0000000e+00 -1.1817485e-02 
7.9875738e-02 0.0000000e+00 3.6258665e-02 
8.2379940e-02 1.0000000e-02 3.6459105e-02 
9.1849779e-02 1.0000000e-02 -1.1774467e-02 
8.2379940e-02 0.0000000e+00 3.6459105e-02 
9.1849779e-02 0.0000000e+00 -1.1774467e-02 
8.4886681e-02 1.0000000e-02 3.6624786e-02 
9.4441696e-02 1.0000000e-02 -1.1731448e-02 
8.4886681e-02 0.0000000e+00 3.6624786e-02 
9.4441696e-02 0.0000000e+00 -1.1731448e-02 
8.7395510e-02 1.0000000e-02 3.6755108e-02 
8.7395510e-02 0.0000000e+00 3.6755108e-02 
9.7033612e-02 1.0000000e-02 -1.1688430e-02 
9.7033612e-02 0.0000000e+00 -1.1688430e-02 
8.9905951e-02 1.0000000e-02 3.6849401e-02 
8.9905951e-02 0.0000000e+00 3.6849401e-02 
9.9625529e-02 1.0000000e-02 -1.1645412e-02 
9.9625529e-02 0.0000000e+00 -1.1645412e-02 
9.2417505e-02 1.0000000e-02 3.6906832e-02 
9.2417505e-02 0.0000000e+00 3.6906832e-02 
1.0221745e-01 1.0000000e-02 -1.1602393e-02 
1.0221745e-01 0.0000000e+00 -1.1602393e-02 
9.4929640e-02 1.0000000e-02 3.6926425e-02 
9.4929640e-02 0.0000000e+00 3.6926425e-02 
1.0480936e-01 1.0000000e-02 -1.1559375e-02 
1.0480936e-01 0.0000000e+00 -1.1559375e-02 
9.7441776e-02 1.0000000e-02 3.6907077e-02 
9.7441776e-02 0.0000000e+00 3.6907077e-02 
1.0740128e-01 1.0000000e-02 -1.1516357e-02 
1.0740128e-01 0.0000000e+00 -1.1516357e-02 
9.9953281e-02 1.0000000e-02 3.6847529e-02 
9.9953281e-02 0.0000000e+00 3.6847529e-02 
1.0999320e-01 1.0000000e-02 -1.1473339e-02 
1.0246345e-01 1.0000000e-02 3.6746314e-02 
1.0999320e-01 0.0000000e+00 -1.1473339e-02 
1.0246345e-01 0.0000000e+00 3.6746314e-02 
1.0497150e-01 1.0000000e-02 3.6601738e-02 
1.1258511e-01 1.0000000e-02 -1.1430320e-02 
1.0497150e-01 0.0000000e+00 3.6601738e-02 
1.1258511e-01 0.0000000e+00 -1.1430320e-02 
1.0747666e-01 1.0000000e-02 3.6413638e-02 
1.1517703e-01 1.0000000e-02 -1.1387302e-02 
1.0747666e-01 0.0000000e+00 3.6413638e-02 
[...]
POINT_DATA 824
FIELD FieldData 2
DISPLACEMENT 3 824  float
0.0000000e+00 0.0000000e+00 0.0000000e+00 
0.0000000e+00 0.0000000e+00 0.0000000e+00 
0.0000000e+00 0.0000000e+00 0.0000000e+00 
0.0000000e+00 0.0000000e+00 0.0000000e+00 
0.0000000e+00 0.0000000e+00 0.0000000e+00 
0.0000000e+00 0.0000000e+00 0.0000000e+00 
0.0000000e+00 0.0000000e+00 0.0000000e+00 
0.0000000e+00 0.0000000e+00 0.0000000e+00 
0.0000000e+00 0.0000000e+00 0.0000000e+00 
0.0000000e+00 0.0000000e+00 0.0000000e+00 
0.0000000e+00 0.0000000e+00 0.0000000e+00 
0.0000000e+00 0.0000000e+00 0.0000000e+00 
0.0000000e+00 0.0000000e+00 0.0000000e+00 
0.0000000e+00 0.0000000e+00 0.0000000e+00 
0.0000000e+00 0.0000000e+00 0.0000000e+00 
0.0000000e+00 0.0000000e+00 0.0000000e+00 
0.0000000e+00 0.0000000e+00 0.0000000e+00 
0.0000000e+00 0.0000000e+00 0.0000000e+00 
0.0000000e+00 0.0000000e+00 0.0000000e+00 
0.0000000e+00 0.0000000e+00 0.0000000e+00 
0.0000000e+00 0.0000000e+00 0.0000000e+00 
0.0000000e+00 0.0000000e+00 0.0000000e+00 
0.0000000e+00 0.0000000e+00 0.0000000e+00 
0.0000000e+00 0.0000000e+00 0.0000000e+00 
0.0000000e+00 0.0000000e+00 0.0000000e+00 
0.0000000e+00 0.0000000e+00 0.0000000e+00 
0.0000000e+00 0.0000000e+00 0.0000000e+00 
0.0000000e+00 0.0000000e+00 0.0000000e+00 
0.0000000e+00 0.0000000e+00 0.0000000e+00 
0.0000000e+00 0.0000000e+00 0.0000000e+00 
0.0000000e+00 0.0000000e+00 0.0000000e+00 
0.0000000e+00 0.0000000e+00 0.0000000e+00 
0.0000000e+00 0.0000000e+00 0.0000000e+00 
0.0000000e+00 0.0000000e+00 0.0000000e+00 
0.0000000e+00 0.0000000e+00 0.0000000e+00 
0.0000000e+00 0.0000000e+00 0.0000000e+00 
0.0000000e+00 0.0000000e+00 0.0000000e+00 
0.0000000e+00 0.0000000e+00 0.0000000e+00 
0.0000000e+00 0.0000000e+00 0.0000000e+00 
0.0000000e+00 0.0000000e+00 0.0000000e+00 
0.0000000e+00 0.0000000e+00 0.0000000e+00 
0.0000000e+00 0.0000000e+00 0.0000000e+00 
0.0000000e+00 0.0000000e+00 0.0000000e+00 
0.0000000e+00 0.0000000e+00 0.0000000e+00 
0.0000000e+00 0.0000000e+00 0.0000000e+00 
0.0000000e+00 0.0000000e+00 0.0000000e+00 
0.0000000e+00 0.0000000e+00 0.0000000e+00 
0.0000000e+00 0.0000000e+00 0.0000000e+00 
0.0000000e+00 0.0000000e+00 0.0000000e+00 
0.0000000e+00 0.0000000e+00 0.0000000e+00 
0.0000000e+00 0.0000000e+00 0.0000000e+00 
0.0000000e+00 0.0000000e+00 0.0000000e+00 
0.0000000e+00 0.0000000e+00 0.0000000e+00 
0.0000000e+00 0.0000000e+00 0.0000000e+00 
0.0000000e+00 0.0000000e+00 0.0000000e+00 
0.0000000e+00 0.0000000e+00 0.0000000e+00 
0.0000000e+00 0.0000000e+00 0.0000000e+00 
0.0000000e+00 0.0000000e+00 0.0000000e+00 
0.0000000e+00 0.0000000e+00 0.0000000e+00 
0.0000000e+00 0.0000000e+00 0.0000000e+00 
0.0000000e+00 0.0000000e+00 0.0000000e+00 
0.0000000e+00 0.0000000e+00 0.0000000e+00 
0.0000000e+00 0.0000000e+00 0.0000000e+00 
0.0000000e+00 0.0000000e+00 0.0000000e+00 
0.0000000e+00 0.0000000e+00 0.0000000e+00 
0.0000000e+00 0.0000000e+00 0.0000000e+00 
0.0000000e+00 0.0000000e+00 0.0000000e+00 
0.0000000e+00 0.0000000e+00 0.0000000e+00 
0.0000000e+00 0.0000000e+00 0.0000000e+00 
0.0000000e+00 0.0000000e+00 0.0000000e+00 
0.0000000e+00 0.0000000e+00 0.0000000e+00 
0.0000000e+00 0.0000000e+00 0.0000000e+00 
0.0000000e+00 0.0000000e+00 0.0000000e+00 
0.0000000e+00 0.0000000e+00 0.0000000e+00 
0.0000000e+00 0.0000000e+00 0.0000000e+00 
0.0000000e+00 0.0000000e+00 0.0000000e+00 
0.0000000e+00 0.0000000e+00 0.0000000e+00 
0.0000000e+00 0.0000000e+00 0.0000000e+00 
0.0000000e+00 0.0000000e+00 0.0000000e+00 
0.0000000e+00 0.0000000e+00 0.0000000e+00 
0.0000000e+00 0.0000000e+00 0.0000000e+00 
0.0000000e+00 0.0000000e+00 0.0000000e+00 
0.0000000e+00 0.0000000e+00 0.0000000e+00 
0.0000000e+00 0.0000000e+00 0.0000000e+00 
0.0000000e+00 0.0000000e+00 0.0000000e+00 
0.0000000e+00 0.0000000e+00 0.0000000e+00 
0.0000000e+00 0.0000000e+00 0.0000000e+00 
0.0000000e+00 0.0000000e+00 0.0000000e+00 
0.0000000e+00 0.0000000e+00 0.0000000e+00 
0.0000000e+00 0.0000000e+00 0.0000000e+00 
0.0000000e+00 0.0000000e+00 0.0000000e+00 
0.0000000e+00 0.0000000e+00 0.0000000e+00 
0.0000000e+00 0.0000000e+00 0.0000000e+00 
0.0000000e+00 0.0000000e+00 0.0000000e+00 
0.0000000e+00 0.0000000e+00 0.0000000e+00 
0.0000000e+00 0.0000000e+00 0.0000000e+00 
0.0000000e+00 0.0000000e+00 0.0000000e+00 
-3.0264704e-05 0.0000000e+00 3.7383361e-04 
0.0000000e+00 0.0000000e+00 0.0000000e+00 
-3.0264704e-05 0.0000000e+00 3.7383361e-04 
0.0000000e+00 0.0000000e+00 0.0000000e+00 
-6.3709370e-05 0.0000000e+00 7.5880551e-04 
0.0000000e+00 0.0000000e+00 0.0000000e+00 
-6.3709370e-05 0.0000000e+00 7.5880551e-04 
0.0000000e+00 0.0000000e+00 0.0000000e+00 
-1.0032973e-04 0.0000000e+00 1.1639553e-03 
0.0000000e+00 0.0000000e+00 0.0000000e+00 
-1.0032973e-04 0.0000000e+00 1.1639553e-03 
0.0000000e+00 0.0000000e+00 0.0000000e+00 
-1.4637572e-04 0.0000000e+00 1.6575286e-03 
0.0000000e+00 0.0000000e+00 0.0000000e+00 
-1.4637572e-04 0.0000000e+00 1.6575286e-03 
0.0000000e+00 0.0000000e+00 0.0000000e+00 
-2.0384442e-04 0.0000000e+00 2.2574822e-03 
0.0000000e+00 0.0000000e+00 0.0000000e+00 
0.0000000e+00 0.0000000e+00 0.0000000e+00 
-2.0384442e-04 0.0000000e+00 2.2574822e-03 
0.0000000e+00 0.0000000e+00 0.0000000e+00 
9.5588242e-05 0.0000000e+00 -2.0310083e-04 
-2.6601341e-04 0.0000000e+00 2.8974314e-03 
9.5588242e-05 0.0000000e+00 -2.0310083e-04 
-2.6601341e-04 0.0000000e+00 2.8974314e-03 
1.8461345e-04 0.0000000e+00 -3.8865708e-04 
-3.2970863e-04 0.0000000e+00 3.5426670e-03 
1.8461345e-04 0.0000000e+00 -3.8865708e-04 
-3.2970863e-04 0.0000000e+00 3.5426670e-03 
2.6732504e-04 0.0000000e+00 -5.5622110e-04 
2.6732504e-04 0.0000000e+00 -5.5622110e-04 
-3.9442711e-04 0.0000000e+00 4.1913037e-03 
3.6802928e-04 0.0000000e+00 -7.4952673e-04 
-3.9442711e-04 0.0000000e+00 4.1913037e-03 
3.6802928e-04 0.0000000e+00 -7.4952673e-04 
-4.5907319e-04 0.0000000e+00 4.8396503e-03 
4.5819214e-04 0.0000000e+00 -9.0692227e-04 
-4.5907319e-04 0.0000000e+00 4.8396503e-03 
4.5819214e-04 0.0000000e+00 -9.0692227e-04 
-5.2389321e-04 0.0000000e+00 5.4885236e-03 
5.3883964e-04 0.0000000e+00 -1.0301531e-03 
-5.2389321e-04 0.0000000e+00 5.4885236e-03 
5.3883964e-04 0.0000000e+00 -1.0301531e-03 
-5.8855292e-04 0.0000000e+00 6.1368650e-03 
6.1044455e-04 0.0000000e+00 -1.1183919e-03 
-5.8855292e-04 0.0000000e+00 6.1368650e-03 
6.1044455e-04 0.0000000e+00 -1.1183919e-03 
6.7347220e-04 0.0000000e+00 -1.1710367e-03 
-6.5218407e-04 0.0000000e+00 6.7815667e-03 
6.7347220e-04 0.0000000e+00 -1.1710367e-03 
-6.5218407e-04 0.0000000e+00 6.7815667e-03 
7.2854523e-04 0.0000000e+00 -1.1884807e-03 
-7.1494395e-04 0.0000000e+00 7.4231370e-03 
7.2854523e-04 0.0000000e+00 -1.1884807e-03 
-7.1494395e-04 0.0000000e+00 7.4231370e-03 
7.7612430e-04 0.0000000e+00 -1.1704859e-03 
-7.7715213e-04 0.0000000e+00 8.0628547e-03 
7.7612430e-04 0.0000000e+00 -1.1704859e-03 
-7.7715213e-04 0.0000000e+00 8.0628547e-03 
8.1670586e-04 0.0000000e+00 -1.1171137e-03 
8.1670586e-04 0.0000000e+00 -1.1171137e-03 
-8.3740834e-04 0.0000000e+00 8.6955982e-03 
-8.3740834e-04 0.0000000e+00 8.6955982e-03 
8.5089131e-04 0.0000000e+00 -1.0289750e-03 
8.5089131e-04 0.0000000e+00 -1.0289750e-03 
-8.9591019e-04 0.0000000e+00 9.3219758e-03 
-8.9591019e-04 0.0000000e+00 9.3219758e-03 
8.7903814e-04 0.0000000e+00 -9.0559113e-04 
8.7903814e-04 0.0000000e+00 -9.0559113e-04 
-9.5293368e-04 0.0000000e+00 9.9432521e-03 
-9.5293368e-04 0.0000000e+00 9.9432521e-03 
9.0142450e-04 0.0000000e+00 -7.4620051e-04 
9.0142450e-04 0.0000000e+00 -7.4620051e-04 
-1.0072326e-03 0.0000000e+00 1.0554500e-02 
-1.0072326e-03 0.0000000e+00 1.0554500e-02 
9.1873647e-04 0.0000000e+00 -5.5181875e-04 
9.1873647e-04 0.0000000e+00 -5.5181875e-04 
-1.0590515e-03 0.0000000e+00 1.1156440e-02 
9.3116985e-04 0.0000000e+00 -3.2125277e-04 
-1.0590515e-03 0.0000000e+00 1.1156440e-02 
9.3116985e-04 0.0000000e+00 -3.2125277e-04 
-1.1087074e-03 0.0000000e+00 1.1750595e-02 
9.3899619e-04 0.0000000e+00 -5.3694648e-05 
-1.1087074e-03 0.0000000e+00 1.1750595e-02 
9.3899619e-04 0.0000000e+00 -5.3694648e-05 
-1.1557587e-03 0.0000000e+00 1.2335234e-02 
9.4300797e-04 0.0000000e+00 2.4960329e-04 
-1.1557587e-03 0.0000000e+00 1.2335234e-02 
9.4300797e-04 0.0000000e+00 2.4960329e-04 
9.4326964e-04 0.0000000e+00 5.9058942e-04 
-1.1999418e-03 0.0000000e+00 1.2908619e-02 
9.4326964e-04 0.0000000e+00 5.9058942e-04 
-1.1999418e-03 0.0000000e+00 1.2908619e-02 
9.3970778e-04 0.0000000e+00 9.7180130e-04 
-1.2415694e-03 0.0000000e+00 1.3472328e-02 
9.3970778e-04 0.0000000e+00 9.7180130e-04 
-1.2415694e-03 0.0000000e+00 1.3472328e-02 
9.3370807e-04 0.0000000e+00 1.3899388e-03 
9.3370807e-04 0.0000000e+00 1.3899388e-03 
-1.2803670e-03 0.0000000e+00 1.4025126e-02 
-1.2803670e-03 0.0000000e+00 1.4025126e-02 
9.2519212e-04 0.0000000e+00 1.8479262e-03 
9.2519212e-04 0.0000000e+00 1.8479262e-03 
-1.3162422e-03 0.0000000e+00 1.4565794e-02 
-1.3162422e-03 0.0000000e+00 1.4565794e-02 
9.1400048e-04 0.0000000e+00 2.3491161e-03 
9.1400048e-04 0.0000000e+00 2.3491161e-03 
-1.3493951e-03 0.0000000e+00 1.5095524e-02 
-1.3493951e-03 0.0000000e+00 1.5095524e-02 
9.0131077e-04 0.0000000e+00 2.8918226e-03 
9.0131077e-04 0.0000000e+00 2.8918226e-03 
-1.3796600e-03 0.0000000e+00 1.5613404e-02 
-1.3796600e-03 0.0000000e+00 1.5613404e-02 
8.8769368e-04 0.0000000e+00 3.4771593e-03 
8.8769368e-04 0.0000000e+00 3.4771593e-03 
-1.4068027e-03 0.0000000e+00 1.6118178e-02 
-1.4068027e-03 0.0000000e+00 1.6118178e-02 
8.7306152e-04 0.0000000e+00 4.1090924e-03 
8.7306152e-04 0.0000000e+00 4.1090924e-03 
-1.4310782e-03 0.0000000e+00 1.6609925e-02 
8.5886446e-04 0.0000000e+00 4.7861588e-03 
-1.4310782e-03 0.0000000e+00 1.6609925e-02 
8.5886446e-04 0.0000000e+00 4.7861588e-03 
8.4664781e-04 0.0000000e+00 5.5071703e-03 
-1.4528178e-03 0.0000000e+00 1.7090492e-02 
8.4664781e-04 0.0000000e+00 5.5071703e-03 
-1.4528178e-03 0.0000000e+00 1.7090492e-02 
8.3591554e-04 0.0000000e+00 6.2770377e-03 
-1.4718833e-03 0.0000000e+00 1.7558991e-02 
8.3591554e-04 0.0000000e+00 6.2770377e-03 
-1.4718833e-03 0.0000000e+00 1.7558991e-02 
8.2542989e-04 0.0000000e+00 7.0618842e-03 
8.2542989e-04 0.0000000e+00 7.0618842e-03 
-1.4880688e-03 0.0000000e+00 1.8014151e-02 
-1.4880688e-03 0.0000000e+00 1.8014151e-02 
8.1510572e-04 0.0000000e+00 7.8460460e-03 
8.1510572e-04 0.0000000e+00 7.8460460e-03 
-1.5019484e-03 0.0000000e+00 1.8457736e-02 
-1.5019484e-03 0.0000000e+00 1.8457736e-02 
8.0385474e-04 0.0000000e+00 8.6336695e-03 
8.0385474e-04 0.0000000e+00 8.6336695e-03 
-1.5137677e-03 0.0000000e+00 1.8891266e-02 
-1.5137677e-03 0.0000000e+00 1.8891266e-02 
7.9246889e-04 0.0000000e+00 9.4217964e-03 
7.9246889e-04 0.0000000e+00 9.4217964e-03 
-1.5232378e-03 0.0000000e+00 1.9313026e-02 
-1.5232378e-03 0.0000000e+00 1.9313026e-02 
7.8185959e-04 0.0000000e+00 1.0206784e-02 
7.8185959e-04 0.0000000e+00 1.0206784e-02 
-1.5305501e-03 0.0000000e+00 1.9723593e-02 
-1.5305501e-03 0.0000000e+00 1.9723593e-02 
7.7156774e-04 0.0000000e+00 1.0990354e-02 
7.7156774e-04 0.0000000e+00 1.0990354e-02 
-1.5358133e-03 0.0000000e+00 2.0122829e-02 
7.6175704e-04 0.0000000e+00 1.1772093e-02 
-1.5358133e-03 0.0000000e+00 2.0122829e-02 
7.6175704e-04 0.0000000e+00 1.1772093e-02 
7.5323722e-04 0.0000000e+00 1.2548566e-02 
-1.5392082e-03 0.0000000e+00 2.0511421e-02 
7.5323722e-04 0.0000000e+00 1.2548566e-02 
-1.5392082e-03 0.0000000e+00 2.0511421e-02 
7.4554113e-04 0.0000000e+00 1.3321529e-02 
-1.5409110e-03 0.0000000e+00 2.0890493e-02 
7.4554113e-04 0.0000000e+00 1.3321529e-02 
-1.5409110e-03 0.0000000e+00 2.0890493e-02 
7.3816132e-04 0.0000000e+00 1.4093265e-02 
7.3816132e-04 0.0000000e+00 1.4093265e-02 
-1.5409424e-03 0.0000000e+00 2.1259800e-02 
-1.5409424e-03 0.0000000e+00 2.1259800e-02 
7.3249256e-04 0.0000000e+00 1.4857866e-02 
7.3249256e-04 0.0000000e+00 1.4857866e-02 
-1.5393323e-03 0.0000000e+00 2.1619217e-02 
-1.5393323e-03 0.0000000e+00 2.1619217e-02 
7.2801363e-04 0.0000000e+00 1.5617315e-02 
7.2801363e-04 0.0000000e+00 1.5617315e-02 
-1.5361265e-03 0.0000000e+00 2.1968703e-02 
-1.5361265e-03 0.0000000e+00 2.1968703e-02 
7.2436124e-04 0.0000000e+00 1.6373451e-02 
7.2436124e-04 0.0000000e+00 1.6373451e-02 
-1.5314665e-03 0.0000000e+00 2.2308642e-02 
-1.5314665e-03 0.0000000e+00 2.2308642e-02 
7.2262031e-04 0.0000000e+00 1.7121771e-02 
7.2262031e-04 0.0000000e+00 1.7121771e-02 
-1.5254830e-03 0.0000000e+00 2.2639632e-02 
-1.5254830e-03 0.0000000e+00 2.2639632e-02 
7.2310007e-04 0.0000000e+00 1.7860306e-02 
7.2310007e-04 0.0000000e+00 1.7860306e-02 
-1.5182292e-03 0.0000000e+00 2.2961896e-02 
-1.5182292e-03 0.0000000e+00 2.2961896e-02 
7.2534373e-04 0.0000000e+00 1.8590821e-02 
7.2534373e-04 0.0000000e+00 1.8590821e-02 
-1.5096610e-03 0.0000000e+00 2.3274829e-02 
-1.5096610e-03 0.0000000e+00 2.3274829e-02 
7.2904893e-04 0.0000000e+00 1.9315043e-02 
7.2904893e-04 0.0000000e+00 1.9315043e-02 
-1.4998943e-03 0.0000000e+00 2.3578876e-02 
7.3512604e-04 0.0000000e+00 2.0028798e-02 
-1.4998943e-03 0.0000000e+00 2.3578876e-02 
7.3512604e-04 0.0000000e+00 2.0028798e-02 
-1.4889405e-03 0.0000000e+00 2.3873810e-02 
7.4369201e-04 0.0000000e+00 2.0730702e-02 
-1.4889405e-03 0.0000000e+00 2.3873810e-02 
7.4369201e-04 0.0000000e+00 2.0730702e-02 
7.5433576e-04 0.0000000e+00 2.1422392e-02 
-1.4767496e-03 0.0000000e+00 2.4158908e-02 
7.5433576e-04 0.0000000e+00 2.1422392e-02 
-1.4767496e-03 0.0000000e+00 2.4158908e-02 
7.6683351e-04 0.0000000e+00 2.2105319e-02 
7.6683351e-04 0.0000000e+00 2.2105319e-02 
-1.4633928e-03 0.0000000e+00 2.4434512e-02 
-1.4633928e-03 0.0000000e+00 2.4434512e-02 
7.8172146e-04 0.0000000e+00 2.2776613e-02 
7.8172146e-04 0.0000000e+00 2.2776613e-02 
-1.4489303e-03 0.0000000e+00 2.4700618e-02 
-1.4489303e-03 0.0000000e+00 2.4700618e-02 
7.9913149e-04 0.0000000e+00 2.3435278e-02 
7.9913149e-04 0.0000000e+00 2.3435278e-02 
-1.4332455e-03 0.0000000e+00 2.4955798e-02 
-1.4332455e-03 0.0000000e+00 2.4955798e-02 
8.1914361e-04 0.0000000e+00 2.4079830e-02 
8.1914361e-04 0.0000000e+00 2.4079830e-02 
-1.4164368e-03 0.0000000e+00 2.5200499e-02 
-1.4164368e-03 0.0000000e+00 2.5200499e-02 
8.4124633e-04 0.0000000e+00 2.4713222e-02 
8.4124633e-04 0.0000000e+00 2.4713222e-02 
-1.3987230e-03 0.0000000e+00 2.5436559e-02 
-1.3987230e-03 0.0000000e+00 2.5436559e-02 
8.6560181e-04 0.0000000e+00 2.5334227e-02 
8.6560181e-04 0.0000000e+00 2.5334227e-02 
-1.3799310e-03 0.0000000e+00 2.5661675e-02 
-1.3799310e-03 0.0000000e+00 2.5661675e-02 
8.9246322e-04 0.0000000e+00 2.5940986e-02 
8.9246322e-04 0.0000000e+00 2.5940986e-02 
-1.3601362e-03 0.0000000e+00 2.5876131e-02 
-1.3601362e-03 0.0000000e+00 2.5876131e-02 
9.2177445e-04 0.0000000e+00 2.6532568e-02 
9.2177445e-04 0.0000000e+00 2.6532568e-02 
-1.3395713e-03 0.0000000e+00 2.6082033e-02 
-1.3395713e-03 0.0000000e+00 2.6082033e-02 
9.5313137e-04 0.0000000e+00 2.7111585e-02 
9.5313137e-04 0.0000000e+00 2.7111585e-02 
-1.3180967e-03 0.0000000e+00 2.6277647e-02 
-1.3180967e-03 0.0000000e+00 2.6277647e-02 
9.8668061e-04 0.0000000e+00 2.7676621e-02 
9.8668061e-04 0.0000000e+00 2.7676621e-02 
-1.2957399e-03 0.0000000e+00 2.6462436e-02 
-1.2957399e-03 0.0000000e+00 2.6462436e-02 
1.0224991e-03 0.0000000e+00 2.8226564e-02 
1.0224991e-03 0.0000000e+00 2.8226564e-02 
-1.2726971e-03 0.0000000e+00 2.6638372e-02 
-1.2726971e-03 0.0000000e+00 2.6638372e-02 
1.0604911e-03 0.0000000e+00 2.8761381e-02 
1.0604911e-03 0.0000000e+00 2.8761381e-02 
-1.2489375e-03 0.0000000e+00 2.6805003e-02 
1.1006452e-03 0.0000000e+00 2.9279531e-02 
-1.2489375e-03 0.0000000e+00 2.6805003e-02 
1.1006452e-03 0.0000000e+00 2.9279531e-02 
1.1427032e-03 0.0000000e+00 2.9782158e-02 
-1.2244550e-03 0.0000000e+00 2.6961734e-02 
1.1427032e-03 0.0000000e+00 2.9782158e-02 
-1.2244550e-03 0.0000000e+00 2.6961734e-02 
1.1865426e-03 0.0000000e+00 3.0270258e-02 
-1.1993533e-03 0.0000000e+00 2.7109029e-02 
1.1865426e-03 0.0000000e+00 3.0270258e-02 
-1.1993533e-03 0.0000000e+00 2.7109029e-02 
1.2321762e-03 0.0000000e+00 3.0742889e-02 
1.2321762e-03 0.0000000e+00 3.0742889e-02 
-1.1737074e-03 0.0000000e+00 2.7247541e-02 
-1.1737074e-03 0.0000000e+00 2.7247541e-02 
1.2795889e-03 0.0000000e+00 3.1199023e-02 
1.2795889e-03 0.0000000e+00 3.1199023e-02 
-1.1474483e-03 0.0000000e+00 2.7376074e-02 
-1.1474483e-03 0.0000000e+00 2.7376074e-02 
1.3286708e-03 0.0000000e+00 3.1638569e-02 
1.3286708e-03 0.0000000e+00 3.1638569e-02 
-1.1206658e-03 0.0000000e+00 2.7494914e-02 
-1.1206658e-03 0.0000000e+00 2.7494914e-02 
1.3792548e-03 0.0000000e+00 3.2061440e-02 
1.3792548e-03 0.0000000e+00 3.2061440e-02 
-1.0934126e-03 0.0000000e+00 2.7604362e-02 
-1.0934126e-03 0.0000000e+00 2.7604362e-02 
1.4311927e-03 0.0000000e+00 3.2468591e-02 
1.4311927e-03 0.0000000e+00 3.2468591e-02 
-1.0656936e-03 0.0000000e+00 2.7703732e-02 
-1.0656936e-03 0.0000000e+00 2.7703732e-02 
1.4844038e-03 0.0000000e+00 3.2859681e-02 
1.4844038e-03 0.0000000e+00 3.2859681e-02 
-1.0375554e-03 0.0000000e+00 2.7794001e-02 
-1.0375554e-03 0.0000000e+00 2.7794001e-02 
1.5387973e-03 0.0000000e+00 3.3234433e-02 
1.5387973e-03 0.0000000e+00 3.3234433e-02 
-1.0090345e-03 0.0000000e+00 2.7874296e-02 
-1.0090345e-03 0.0000000e+00 2.7874296e-02 
1.5942666e-03 0.0000000e+00 3.3592747e-02 
1.5942666e-03 0.0000000e+00 3.3592747e-02 
-9.8016069e-04 0.0000000e+00 2.7944331e-02 
-9.8016069e-04 0.0000000e+00 2.7944331e-02 
1.6506688e-03 0.0000000e+00 3.3934856e-02 
1.6506688e-03 0.0000000e+00 3.3934856e-02 
-9.5094091e-04 0.0000000e+00 2.8004184e-02 
-9.5094091e-04 0.0000000e+00 2.8004184e-02 
1.7078667e-03 0.0000000e+00 3.4261095e-02 
1.7078667e-03 0.0000000e+00 3.4261095e-02 
-9.2143439e-04 0.0000000e+00 2.8053026e-02 
-9.2143439e-04 0.0000000e+00 2.8053026e-02 
1.7657469e-03 0.0000000e+00 3.4571791e-02 
1.7657469e-03 0.0000000e+00 3.4571791e-02 
-8.9169248e-04 0.0000000e+00 2.8091060e-02 
-8.9169248e-04 0.0000000e+00 2.8091060e-02 
1.8242228e-03 0.0000000e+00 3.4867069e-02 
1.8242228e-03 0.0000000e+00 3.4867069e-02 
-8.6176622e-04 0.0000000e+00 2.8118698e-02 
-8.6176622e-04 0.0000000e+00 2.8118698e-02 
1.8831820e-03 0.0000000e+00 3.5147094e-02 
1.8831820e-03 0.0000000e+00 3.5147094e-02 
-8.3165649e-04 0.0000000e+00 2.8135673e-02 
-8.3165649e-04 0.0000000e+00 2.8135673e-02 
1.9422288e-03 0.0000000e+00 3.5411283e-02 
1.9422288e-03 0.0000000e+00 3.5411283e-02 
-8.0136661e-04 0.0000000e+00 2.8141514e-02 
-8.0136661e-04 0.0000000e+00 2.8141514e-02 
2.0134539e-03 0.0000000e+00 3.5709925e-02 
2.0134539e-03 0.0000000e+00 3.5709925e-02 
-7.6491568e-04 0.0000000e+00 2.8136099e-02 
-7.6491568e-04 0.0000000e+00 2.8136099e-02 
2.0992761e-03 0.0000000e+00 3.6042041e-02 
2.0992761e-03 0.0000000e+00 3.6042041e-02 
-7.2118934e-04 0.0000000e+00 2.8106371e-02 
-7.2118934e-04 0.0000000e+00 2.8106371e-02 
2.2024786e-03 0.0000000e+00 3.6402756e-02 
2.2024786e-03 0.0000000e+00 3.6402756e-02 
-6.6930659e-04 0.0000000e+00 2.8047225e-02 
-6.6930659e-04 0.0000000e+00 2.8047225e-02 
2.3111306e-03 0.0000000e+00 3.6743575e-02 
2.3111306e-03 0.0000000e+00 3.6743575e-02 
-6.1761866e-04 0.0000000e+00 2.7963171e-02 
-6.1761866e-04 0.0000000e+00 2.7963171e-02 
2.4193574e-03 0.0000000e+00 3.7045719e-02 
2.4193574e-03 0.0000000e+00 3.7045719e-02 
-5.6639154e-04 0.0000000e+00 2.7852008e-02 
-5.6639154e-04 0.0000000e+00 2.7852008e-02 
2.5269474e-03 0.0000000e+00 3.7312531e-02 
2.5269474e-03 0.0000000e+00 3.7312531e-02 
-5.1551601e-04 0.0000000e+00 2.7721524e-02 
-5.1551601e-04 0.0000000e+00 2.7721524e-02 
2.6336356e-03 0.0000000e+00 3.7544033e-02 
2.6336356e-03 0.0000000e+00 3.7544033e-02 
-4.6512924e-04 0.0000000e+00 2.7569602e-02 
-4.6512924e-04 0.0000000e+00 2.7569602e-02 
2.7393058e-03 0.0000000e+00 3.7743477e-02 
2.7393058e-03 0.0000000e+00 3.7743477e-02 
-4.1529344e-04 0.0000000e+00 2.7397407e-02 
-4.1529344e-04 0.0000000e+00 2.7397407e-02 
2.8438530e-03 0.0000000e+00 3.7913234e-02 
2.8438530e-03 0.0000000e+00 3.7913234e-02 
-3.6593229e-04 0.0000000e+00 2.7209394e-02 
-3.6593229e-04 0.0000000e+00 2.7209394e-02 
2.9470938e-03 0.0000000e+00 3.8053134e-02 
2.9470938e-03 0.0000000e+00 3.8053134e-02 
-3.1714845e-04 0.0000000e+00 2.7004057e-02 
-3.1714845e-04 0.0000000e+00 2.7004057e-02 