# vtk DataFile Version 4.0
vtk output
ASCII
DATASET UNSTRUCTURED_GRID
POINTS 824 float
-6.4148600e-05 1.0000000e-02 -4.4525366e-03 
-1.0680180e-04 1.0000000e-02 -2.8088474e-03 
3.4513260e-04 1.0000000e-02 -6.0450544e-03 
1.3803532e-03 1.0000000e-02 -7.3230534e-03 
6.5829700e-05 1.0000000e-02 -1.1736922e-03 
2.7142144e-03 1.0000000e-02 -8.2851896e-03 
5.0392030e-04 1.0000000e-02 6.5784910e-04 
4.1780764e-03 1.0000000e-02 -9.0342357e-03 
1.1628646e-03 1.0000000e-02 2.4220088e-03 
5.7070961e-03 1.0000000e-02 -9.6390187e-03 
2.0046218e-03 1.0000000e-02 4.1066196e-03 
7.2731595e-03 1.0000000e-02 -1.0140047e-02 
-6.4148600e-05 0.0000000e+00 -4.4525366e-03 
-1.0680180e-04 0.0000000e+00 -2.8088474e-03 
3.4513260e-04 0.0000000e+00 -6.0450544e-03 
1.3803532e-03 0.0000000e+00 -7.3230534e-03 
6.5829700e-05 0.0000000e+00 -1.1736922e-03 
2.9952540e-03 1.0000000e-02 5.7082181e-03 
8.8622628e-03 1.0000000e-02 -1.0562311e-02 
2.7142144e-03 0.0000000e+00 -8.2851896e-03 
5.0392030e-04 0.0000000e+00 6.5784910e-04 
4.1780764e-03 0.0000000e+00 -9.0342357e-03 
1.1628646e-03 0.0000000e+00 2.4220088e-03 
1.0466628e-02 1.0000000e-02 -1.0922252e-02 
4.1067238e-03 1.0000000e-02 7.2284501e-03 
5.7070961e-03 0.0000000e+00 -9.6390187e-03 
2.0046218e-03 0.0000000e+00 4.1066196e-03 
7.2731595e-03 0.0000000e+00 -1.0140047e-02 
1.2081579e-02 1.0000000e-02 -1.1231240e-02 
5.3166988e-03 1.0000000e-02 8.6715129e-03 
2.9952540e-03 0.0000000e+00 5.7082181e-03 
8.8622628e-03 0.0000000e+00 -1.0562311e-02 
1.3704120e-02 1.0000000e-02 -1.1497501e-02 
1.0466628e-02 0.0000000e+00 -1.0922252e-02 
4.1067238e-03 0.0000000e+00 7.2284501e-03 
6.6076374e-03 1.0000000e-02 1.0042624e-02 
1.5332244e-02 1.0000000e-02 -1.1727173e-02 
1.2081579e-02 0.0000000e+00 -1.1231240e-02 
5.3166988e-03 0.0000000e+00 8.6715129e-03 
7.9658343e-03 1.0000000e-02 1.1347144e-02 
1.3704120e-02 0.0000000e+00 -1.1497501e-02 
1.6964543e-02 1.0000000e-02 -1.1925002e-02 
6.6076374e-03 0.0000000e+00 1.0042624e-02 
9.3804686e-03 1.0000000e-02 1.2590236e-02 
1.5332244e-02 0.0000000e+00 -1.1727173e-02 
1.8600004e-02 1.0000000e-02 -1.2094716e-02 
7.9658343e-03 0.0000000e+00 1.1347144e-02 
1.6964543e-02 0.0000000e+00 -1.1925002e-02 
1.0843002e-02 1.0000000e-02 1.3776601e-02 
2.0237876e-02 1.0000000e-02 -1.2239318e-02 
9.3804686e-03 0.0000000e+00 1.2590236e-02 
1.8600004e-02 0.0000000e+00 -1.2094716e-02 
1.2346566e-02 1.0000000e-02 1.4910517e-02 
2.1877591e-02 1.0000000e-02 -1.2361246e-02 
1.0843002e-02 0.0000000e+00 1.3776601e-02 
2.0237876e-02 0.0000000e+00 -1.2239318e-02 
1.3885623e-02 1.0000000e-02 1.5995768e-02 
2.3518711e-02 1.0000000e-02 -1.2462540e-02 
1.2346566e-02 0.0000000e+00 1.4910517e-02 
2.1877591e-02 0.0000000e+00 -1.2361246e-02 
2.5160890e-02 1.0000000e-02 -1.2544903e-02 
1.5455654e-02 1.0000000e-02 1.7035707e-02 
1.3885623e-02 0.0000000e+00 1.5995768e-02 
2.3518711e-02 0.0000000e+00 -1.2462540e-02 
2.6803852e-02 1.0000000e-02 -1.2609772e-02 
1.7052912e-02 1.0000000e-02 1.8033321e-02 
2.5160890e-02 0.0000000e+00 -1.2544903e-02 
1.5455654e-02 0.0000000e+00 1.7035707e-02 
2.8447376e-02 1.0000000e-02 -1.2658389e-02 
2.6803852e-02 0.0000000e+00 -1.2609772e-02 
1.7052912e-02 0.0000000e+00 1.8033321e-02 
1.8674284e-02 1.0000000e-02 1.8991246e-02 
3.0091279e-02 1.0000000e-02 -1.2691814e-02 
2.8447376e-02 0.0000000e+00 -1.2658389e-02 
1.8674284e-02 0.0000000e+00 1.8991246e-02 
2.0317149e-02 1.0000000e-02 1.9911822e-02 
3.0091279e-02 0.0000000e+00 -1.2691814e-02 
3.1735410e-02 1.0000000e-02 -1.2710971e-02 
2.0317149e-02 0.0000000e+00 1.9911822e-02 
2.1979295e-02 1.0000000e-02 2.0797113e-02 
3.1735410e-02 0.0000000e+00 -1.2710971e-02 
3.3379643e-02 1.0000000e-02 -1.2716676e-02 
2.1979295e-02 0.0000000e+00 2.0797113e-02 
2.3658832e-02 1.0000000e-02 2.1648949e-02 
3.3379643e-02 0.0000000e+00 -1.2716676e-02 
3.5023871e-02 1.0000000e-02 -1.2709629e-02 
2.3658832e-02 0.0000000e+00 2.1648949e-02 
2.5354100e-02 1.0000000e-02 2.2469029e-02 
3.5023871e-02 0.0000000e+00 -1.2709629e-02 
3.6668001e-02 1.0000000e-02 -1.2690457e-02 
2.5354100e-02 0.0000000e+00 2.2469029e-02 
2.7063712e-02 1.0000000e-02 2.3258772e-02 
3.6668001e-02 0.0000000e+00 -1.2690457e-02 
3.8312016e-02 1.0000000e-02 -1.2663038e-02 
2.7063712e-02 0.0000000e+00 2.3258772e-02 
3.8312016e-02 0.0000000e+00 -1.2663038e-02 
2.8786417e-02 1.0000000e-02 2.4019532e-02 
3.9956032e-02 1.0000000e-02 -1.2635752e-02 
2.8786417e-02 0.0000000e+00 2.4019532e-02 
3.9956032e-02 0.0000000e+00 -1.2635752e-02 
3.0521135e-02 1.0000000e-02 2.4752486e-02 
4.1600048e-02 1.0000000e-02 -1.2608467e-02 
3.0521135e-02 0.0000000e+00 2.4752486e-02 
4.1600048e-02 0.0000000e+00 -1.2608467e-02 
3.2266919e-02 1.0000000e-02 2.5458676e-02 
4.3299814e-02 1.0000000e-02 -1.2580255e-02 
3.2266919e-02 0.0000000e+00 2.5458676e-02 
4.3299814e-02 0.0000000e+00 -1.2580255e-02 
3.4022902e-02 1.0000000e-02 2.6139111e-02 
4.5339533e-02 1.0000000e-02 -1.2546402e-02 
3.4022902e-02 0.0000000e+00 2.6139111e-02 
4.5339533e-02 0.0000000e+00 -1.2546402e-02 
3.5788340e-02 1.0000000e-02 2.6794623e-02 
4.7787196e-02 1.0000000e-02 -1.2505778e-02 
3.5788340e-02 0.0000000e+00 2.6794623e-02 
3.7562554e-02 1.0000000e-02 2.7425996e-02 
4.7787196e-02 0.0000000e+00 -1.2505778e-02 
3.7562554e-02 0.0000000e+00 2.7425996e-02 
3.9344928e-02 1.0000000e-02 2.8033950e-02 
5.0379113e-02 1.0000000e-02 -1.2462760e-02 
3.9344928e-02 0.0000000e+00 2.8033950e-02 
5.0379113e-02 0.0000000e+00 -1.2462760e-02 
4.1134916e-02 1.0000000e-02 2.8619109e-02 
5.2971029e-02 1.0000000e-02 -1.2419741e-02 
4.1134916e-02 0.0000000e+00 2.8619109e-02 
5.2971029e-02 0.0000000e+00 -1.2419741e-02 
4.2932026e-02 1.0000000e-02 2.9182016e-02 
4.2932026e-02 0.0000000e+00 2.9182016e-02 
5.5562946e-02 1.0000000e-02 -1.2376723e-02 
4.5339682e-02 1.0000000e-02 2.9899231e-02 
5.5562946e-02 0.0000000e+00 -1.2376723e-02 
4.5339682e-02 0.0000000e+00 2.9899231e-02 
5.8154863e-02 1.0000000e-02 -1.2333705e-02 
4.7758221e-02 1.0000000e-02 3.0578844e-02 
5.8154863e-02 0.0000000e+00 -1.2333705e-02 
4.7758221e-02 0.0000000e+00 3.0578844e-02 
6.0746779e-02 1.0000000e-02 -1.2290686e-02 
5.0186760e-02 1.0000000e-02 3.1221807e-02 
6.0746779e-02 0.0000000e+00 -1.2290686e-02 
5.0186760e-02 0.0000000e+00 3.1221807e-02 
6.3338696e-02 1.0000000e-02 -1.2247668e-02 
5.2624513e-02 1.0000000e-02 3.1828903e-02 
6.3338696e-02 0.0000000e+00 -1.2247668e-02 
5.2624513e-02 0.0000000e+00 3.1828903e-02 
5.5070762e-02 1.0000000e-02 3.2400804e-02 
6.5930613e-02 1.0000000e-02 -1.2204650e-02 
5.5070762e-02 0.0000000e+00 3.2400804e-02 
6.5930613e-02 0.0000000e+00 -1.2204650e-02 
5.7524847e-02 1.0000000e-02 3.2938082e-02 
6.8522529e-02 1.0000000e-02 -1.2161631e-02 
5.7524847e-02 0.0000000e+00 3.2938082e-02 
6.8522529e-02 0.0000000e+00 -1.2161631e-02 
5.9986169e-02 1.0000000e-02 3.3441170e-02 
7.1114446e-02 1.0000000e-02 -1.2118613e-02 
5.9986169e-02 0.0000000e+00 3.3441170e-02 
7.1114446e-02 0.0000000e+00 -1.2118613e-02 
6.2454163e-02 1.0000000e-02 3.3910436e-02 
6.2454163e-02 0.0000000e+00 3.3910436e-02 
7.3706362e-02 1.0000000e-02 -1.2075595e-02 
7.3706362e-02 0.0000000e+00 -1.2075595e-02 
6.4928303e-02 1.0000000e-02 3.4346139e-02 
6.4928303e-02 0.0000000e+00 3.4346139e-02 
7.6298279e-02 1.0000000e-02 -1.2032577e-02 
7.6298279e-02 0.0000000e+00 -1.2032577e-02 
6.7408092e-02 1.0000000e-02 3.4748446e-02 
6.7408092e-02 0.0000000e+00 3.4748446e-02 
7.8890196e-02 1.0000000e-02 -1.1989558e-02 
7.8890196e-02 0.0000000e+00 -1.1989558e-02 
6.9893057e-02 1.0000000e-02 3.5117436e-02 
6.9893057e-02 0.0000000e+00 3.5117436e-02 
8.1482112e-02 1.0000000e-02 -1.1946540e-02 
8.1482112e-02 0.0000000e+00 -1.1946540e-02 
7.2382742e-02 1.0000000e-02 3.5453098e-02 
7.2382742e-02 0.0000000e+00 3.5453098e-02 
8.4074029e-02 1.0000000e-02 -1.1903522e-02 
7.4876707e-02 1.0000000e-02 3.5755332e-02 
8.4074029e-02 0.0000000e+00 -1.1903522e-02 
7.4876707e-02 0.0000000e+00 3.5755332e-02 
8.6665946e-02 1.0000000e-02 -1.1860503e-02 
7.7374516e-02 1.0000000e-02 3.6023948e-02 
8.6665946e-02 0.0000000e+00 -1.1860503e-02 
7.7374516e-02 0.0000000e+00 3.6023948e-02 
8.9257862e-02 1.0000000e-02 -1.1817485e-02 
7.9875738e-02 1.0000000e-02 3.6258665e-02 
8.9257862e-02 0.0000000e+00 -1.1817485e-02 
7.9875738e-02 0.0000000e+00 3.6258665e-02 
8.2379940e-02 1.0000000e-02 3.6459105e-02 
9.1849779e-02 1.0000000e-02 -1.1774467e-02 
8.2379940e-02 0.0000000e+00 3.6459105e-02 
9.1849779e-02 0.0000000e+00 -1.1774467e-02 
8.4886681e-02 1.0000000e-02 3.6624786e-02 
9.4441696e-02 1.0000000e-02 -1.1731448e-02 
8.4886681e-02 0.0000000e+00 3.6624786e-02 
9.4441696e-02 0.0000000e+00 -1.1731448e-02 
8.7395510e-02 1.0000000e-02 3.6755108e-02 
8.7395510e-02 0.0000000e+00 3.6755108e-02 
9.7033612e-02 1.0000000e-02 -1.1688430e-02 
9.7033612e-02 0.0000000e+00 -1.1688430e-02 
8.9905951e-02 1.0000000e-02 3.6849401e-02 
8.9905951e-02 0.0000000e+00 3.6849401e-02 
9.9625529e-02 1.0000000e-02 -1.1645412e-02 
9.9625529e-02 0.0000000e+00 -1.1645412e-02 
9.2417505e-02 1.0000000e-02 3.6906832e-02 
9.2417505e-02 0.0000000e+00 3.6906832e-02 
1.0221745e-01 1.0000000e-02 -1.1602393e-02 
1.0221745e-01 0.0000000e+00 -1.1602393e-02 
9.4929640e-02 1.0000000e-02 3.6926425e-02 
9.4929640e-02 0.0000000e+00 3.6926425e-02 
1.0480936e-01 1.0000000e-02 -1.1559375e-02 
1.0480936e-01 0.0000000e+00 -1.1559375e-02 
9.7441776e-02 1.0000000e-02 3.6907077e-02 
9.7441776e-02 0.0000000e+00 3.6907077e-02 
1.0740128e-01 1.0000000e-02 -1.1516357e-02 
1.0740128e-01 0.0000000e+00 -1.1516357e-02 
9.9953281e-02 1.0000000e-02 3.6847529e-02 
9.9953281e-02 0.0000000e+00 3.6847529e-02 
1.0999320e-01 1.0000000e-02 -1.1473339e-02 
1.0246345e-01 1.0000000e-02 3.6746314e-02 
1.0999320e-01 0.0000000e+00 -1.1473339e-02 
1.0246345e-01 0.0000000e+00 3.6746314e-02 
1.0497150e-01 1.0000000e-02 3.6601738e-02 
1.1258511e-01 1.0000000e-02 -1.1430320e-02 
1.0497150e-01 0.0000000e+00 3.6601738e-02 
1.1258511e-01 0.0000000e+00 -1.1430320e-02 
1.0747666e-01 1.0000000e-02 3.6413638e-02 
1.1517703e-01 1.0000000e-02 -1.1387302e-02 
1.0747666e-01 0.0000000e+00 3.6413638e-02 
[...]
POINT_DATA 824
FIELD FieldData 2
DISPLACEMENT 3 824  float
0.0000000e+00 0.0000000e+00 0.0000000e+00 
0.0000000e+00 0.0000000e+00 0.0000000e+00 
0.0000000e+00 0.0000000e+00 0.0000000e+00 
0.0000000e+00 0.0000000e+00 0.0000000e+00 
0.0000000e+00 0.0000000e+00 0.0000000e+00 
0.0000000e+00 0.0000000e+00 0.0000000e+00 
0.0000000e+00 0.0000000e+00 0.0000000e+00 
0.0000000e+00 0.0000000e+00 0.0000000e+00 
0.0000000e+00 0.0000000e+00 0.0000000e+00 
0.0000000e+00 0.0000000e+00 0.0000000e+00 
0.0000000e+00 0.0000000e+00 0.0000000e+00 
0.0000000e+00 0.0000000e+00 0.0000000e+00 
0.0000000e+00 0.0000000e+00 0.0000000e+00 
0.0000000e+00 0.0000000e+00 0.0000000e+00 
0.0000000e+00 0.0000000e+00 0.0000000e+00 
0.0000000e+00 0.0000000e+00 0.0000000e+00 
0.0000000e+00 0.0000000e+00 0.0000000e+00 
0.0000000e+00 0.0000000e+00 0.0000000e+00 
0.0000000e+00 0.0000000e+00 0.0000000e+00 
0.0000000e+00 0.0000000e+00 0.0000000e+00 
0.0000000e+00 0.0000000e+00 0.0000000e+00 
0.0000000e+00 0.0000000e+00 0.0000000e+00 
0.0000000e+00 0.0000000e+00 0.0000000e+00 
0.0000000e+00 0.0000000e+00 0.0000000e+00 
0.0000000e+00 0.0000000e+00 0.0000000e+00 
0.0000000e+00 0.0000000e+00 0.0000000e+00 
0.0000000e+00 0.0000000e+00 0.0000000e+00 
0.0000000e+00 0.0000000e+00 0.0000000e+00 
0.0000000e+00 0.0000000e+00 0.0000000e+00 
0.0000000e+00 0.0000000e+00 0.0000000e+00 
0.0000000e+00 0.0000000e+00 0.0000000e+00 
0.0000000e+00 0.0000000e+00 0.0000000e+00 
0.0000000e+00 0.0000000e+00 0.0000000e+00 
0.0000000e+00 0.0000000e+00 0.0000000e+00 
0.0000000e+00 0.0000000e+00 0.0000000e+00 
0.0000000e+00 0.0000000e+00 0.0000000e+00 
0.0000000e+00 0.0000000e+00 0.0000000e+00 
0.0000000e+00 0.0000000e+00 0.0000000e+00 
0.0000000e+00 0.0000000e+00 0.0000000e+00 
0.0000000e+00 0.0000000e+00 0.0000000e+00 
0.0000000e+00 0.0000000e+00 0.0000000e+00 
0.0000000e+00 0.0000000e+00 0.0000000e+00 
0.0000000e+00 0.0000000e+00 0.0000000e+00 
0.0000000e+00 0.0000000e+00 0.0000000e+00 
0.0000000e+00 0.0000000e+00 0.0000000e+00 
0.0000000e+00 0.0000000e+00 0.0000000e+00 
0.0000000e+00 0.0000000e+00 0.0000000e+00 
0.0000000e+00 0.0000000e+00 0.0000000e+00 
0.0000000e+00 0.0000000e+00 0.0000000e+00 
0.0000000e+00 0.0000000e+00 0.0000000e+00 
0.0000000e+00 0.0000000e+00 0.0000000e+00 
0.0000000e+00 0.0000000e+00 0.0000000e+00 
0.0000000e+00 0.0000000e+00 0.0000000e+00 
0.0000000e+00 0.0000000e+00 0.0000000e+00 
0.0000000e+00 0.0000000e+00 0.0000000e+00 
0.0000000e+00 0.0000000e+00 0.0000000e+00 
0.0000000e+00 0.0000000e+00 0.0000000e+00 
0.0000000e+00 0.0000000e+00 0.0000000e+00 
0.0000000e+00 0.0000000e+00 0.0000000e+00 
0.0000000e+00 0.0000000e+00 0.0000000e+00 
0.0000000e+00 0.0000000e+00 0.0000000e+00 
0.0000000e+00 0.0000000e+00 0.0000000e+00 
0.0000000e+00 0.0000000e+00 0.0000000e+00 
0.0000000e+00 0.0000000e+00 0.0000000e+00 
0.0000000e+00 0.0000000e+00 0.0000000e+00 
0.0000000e+00 0.0000000e+00 0.0000000e+00 
0.0000000e+00 0.0000000e+00 0.0000000e+00 
0.0000000e+00 0.0000000e+00 0.0000000e+00 
0.0000000e+00 0.0000000e+00 0.0000000e+00 
0.0000000e+00 0.0000000e+00 0.0000000e+00 
0.0000000e+00 0.0000000e+00 0.0000000e+00 
0.0000000e+00 0.0000000e+00 0.0000000e+00 
0.0000000e+00 0.0000000e+00 0.0000000e+00 
0.0000000e+00 0.0000000e+00 0.0000000e+00 
0.0000000e+00 0.0000000e+00 0.0000000e+00 
0.0000000e+00 0.0000000e+00 0.0000000e+00 
0.0000000e+00 0.0000000e+00 0.0000000e+00 
0.0000000e+00 0.0000000e+00 0.0000000e+00 
0.0000000e+00 0.0000000e+00 0.0000000e+00 
0.0000000e+00 0.0000000e+00 0.0000000e+00 
0.0000000e+00 0.0000000e+00 0.0000000e+00 
0.0000000e+00 0.0000000e+00 0.0000000e+00 
0.0000000e+00 0.0000000e+00 0.0000000e+00 
0.0000000e+00 0.0000000e+00 0.0000000e+00 
0.0000000e+00 0.0000000e+00 0.0000000e+00 
0.0000000e+00 0.0000000e+00 0.0000000e+00 
0.0000000e+00 0.0000000e+00 0.0000000e+00 
0.0000000e+00 0.0000000e+00 0.0000000e+00 
0.0000000e+00 0.0000000e+00 0.0000000e+00 
0.0000000e+00 0.0000000e+00 0.0000000e+00 
0.0000000e+00 0.0000000e+00 0.0000000e+00 
0.0000000e+00 0.0000000e+00 0.0000000e+00 
0.0000000e+00 0.0000000e+00 0.0000000e+00 
0.0000000e+00 0.0000000e+00 0.0000000e+00 
0.0000000e+00 0.0000000e+00 0.0000000e+00 
0.0000000e+00 0.0000000e+00 0.0000000e+00 
0.0000000e+00 0.0000000e+00 0.0000000e+00 
-6.0518540e-05 0.0000000e+00 4.8577263e-04 
0.0000000e+00 0.0000000e+00 0.0000000e+00 
-6.0518540e-05 0.0000000e+00 4.8577263e-04 
0.0000000e+00 0.0000000e+00 0.0000000e+00 
-1.2084143e-04 0.0000000e+00 9.7088773e-04 
0.0000000e+00 0.0000000e+00 0.0000000e+00 
-1.2084143e-04 0.0000000e+00 9.7088773e-04 
0.0000000e+00 0.0000000e+00 0.0000000e+00 
-1.8286165e-04 0.0000000e+00 1.4712775e-03 
0.0000000e+00 0.0000000e+00 0.0000000e+00 
-1.8286165e-04 0.0000000e+00 1.4712775e-03 
0.0000000e+00 0.0000000e+00 0.0000000e+00 
-2.5672452e-04 0.0000000e+00 2.0698483e-03 
0.0000000e+00 0.0000000e+00 0.0000000e+00 
-2.5672452e-04 0.0000000e+00 2.0698483e-03 
0.0000000e+00 0.0000000e+00 0.0000000e+00 
-3.4474223e-04 0.0000000e+00 2.7860376e-03 
0.0000000e+00 0.0000000e+00 0.0000000e+00 
0.0000000e+00 0.0000000e+00 0.0000000e+00 
-3.4474223e-04 0.0000000e+00 2.7860376e-03 
0.0000000e+00 0.0000000e+00 0.0000000e+00 
3.9695082e-05 0.0000000e+00 2.5959963e-05 
-4.3738271e-04 0.0000000e+00 3.5425159e-03 
3.9695082e-05 0.0000000e+00 2.5959963e-05 
-4.3738271e-04 0.0000000e+00 3.5425159e-03 
7.2549580e-05 0.0000000e+00 7.2484073e-05 
-5.2948034e-04 0.0000000e+00 4.2971421e-03 
7.2549580e-05 0.0000000e+00 7.2484073e-05 
-5.2948034e-04 0.0000000e+00 4.2971421e-03 
9.9143488e-05 0.0000000e+00 1.3875068e-04 
9.9143488e-05 0.0000000e+00 1.3875068e-04 
-6.2120808e-04 0.0000000e+00 5.0505056e-03 
1.2558300e-04 0.0000000e+00 2.5715313e-04 
-6.2120808e-04 0.0000000e+00 5.0505056e-03 
1.2558300e-04 0.0000000e+00 2.5715313e-04 
-7.1257160e-04 0.0000000e+00 5.8026226e-03 
1.4275738e-04 0.0000000e+00 4.0836735e-04 
-7.1257160e-04 0.0000000e+00 5.8026226e-03 
1.4275738e-04 0.0000000e+00 4.0836735e-04 
-8.0348116e-04 0.0000000e+00 6.5531818e-03 
1.5188972e-04 0.0000000e+00 5.9035561e-04 
-8.0348116e-04 0.0000000e+00 6.5531818e-03 
1.5188972e-04 0.0000000e+00 5.9035561e-04 
-8.9378500e-04 0.0000000e+00 7.3016601e-03 
1.5353530e-04 0.0000000e+00 8.0297543e-04 
-8.9378500e-04 0.0000000e+00 7.3016601e-03 
1.5353530e-04 0.0000000e+00 8.0297543e-04 
1.4833751e-04 0.0000000e+00 1.0457290e-03 
-9.8329757e-04 0.0000000e+00 8.0474097e-03 
1.4833751e-04 0.0000000e+00 1.0457290e-03 
-9.8329757e-04 0.0000000e+00 8.0474097e-03 
1.3699530e-04 0.0000000e+00 1.3178709e-03 
-1.0718477e-03 0.0000000e+00 8.7898257e-03 
1.3699530e-04 0.0000000e+00 1.3178709e-03 
-1.0718477e-03 0.0000000e+00 8.7898257e-03 
1.1983137e-04 0.0000000e+00 1.6197712e-03 
-1.1591349e-03 0.0000000e+00 9.5278465e-03 
1.1983137e-04 0.0000000e+00 1.6197712e-03 
-1.1591349e-03 0.0000000e+00 9.5278465e-03 
9.7417185e-05 0.0000000e+00 1.9509990e-03 
9.7417185e-05 0.0000000e+00 1.9509990e-03 
-1.2442583e-03 0.0000000e+00 1.0258274e-02 
-1.2442583e-03 0.0000000e+00 1.0258274e-02 
7.0454419e-05 0.0000000e+00 2.3106912e-03 
7.0454419e-05 0.0000000e+00 2.3106912e-03 
-1.3270677e-03 0.0000000e+00 1.0980493e-02 
-1.3270677e-03 0.0000000e+00 1.0980493e-02 
3.9526648e-05 0.0000000e+00 2.6983480e-03 
3.9526648e-05 0.0000000e+00 2.6983480e-03 
-1.4072462e-03 0.0000000e+00 1.1693262e-02 
-1.4072462e-03 0.0000000e+00 1.1693262e-02 
5.1755430e-06 0.0000000e+00 3.1135898e-03 
5.1755430e-06 0.0000000e+00 3.1135898e-03 
-1.4840545e-03 0.0000000e+00 1.2393743e-02 
-1.4840545e-03 0.0000000e+00 1.2393743e-02 
-3.1939245e-05 0.0000000e+00 3.5556838e-03 
-3.1939245e-05 0.0000000e+00 3.5556838e-03 
-1.5573520e-03 0.0000000e+00 1.3081190e-02 
-7.1186051e-05 0.0000000e+00 4.0240140e-03 
-1.5573520e-03 0.0000000e+00 1.3081190e-02 
-7.1186051e-05 0.0000000e+00 4.0240140e-03 
-1.6271301e-03 0.0000000e+00 1.3755318e-02 
-1.1211151e-04 0.0000000e+00 4.5185823e-03 
-1.6271301e-03 0.0000000e+00 1.3755318e-02 
-1.1211151e-04 0.0000000e+00 4.5185823e-03 
-1.6934992e-03 0.0000000e+00 1.4416296e-02 
-1.5408251e-04 0.0000000e+00 5.0388659e-03 
-1.6934992e-03 0.0000000e+00 1.4416296e-02 
-1.5408251e-04 0.0000000e+00 5.0388659e-03 
-1.9647107e-04 0.0000000e+00 5.5844315e-03 
-1.7561388e-03 0.0000000e+00 1.5062583e-02 
-1.9647107e-04 0.0000000e+00 5.5844315e-03 
-1.7561388e-03 0.0000000e+00 1.5062583e-02 
-2.3882228e-04 0.0000000e+00 6.1555595e-03 
-1.8151212e-03 0.0000000e+00 1.5694139e-02 
-2.3882228e-04 0.0000000e+00 6.1555595e-03 
-1.8151212e-03 0.0000000e+00 1.5694139e-02 
-2.8067644e-04 0.0000000e+00 6.7526296e-03 
-2.8067644e-04 0.0000000e+00 6.7526296e-03 
-1.8708369e-03 0.0000000e+00 1.6312246e-02 
-1.8708369e-03 0.0000000e+00 1.6312246e-02 
-3.2150189e-04 0.0000000e+00 7.3759285e-03 
-3.2150189e-04 0.0000000e+00 7.3759285e-03 
-1.9229341e-03 0.0000000e+00 1.6915116e-02 
-1.9229341e-03 0.0000000e+00 1.6915116e-02 
-3.6075422e-04 0.0000000e+00 8.0259303e-03 
-3.6075422e-04 0.0000000e+00 8.0259303e-03 
-1.9714212e-03 0.0000000e+00 1.7502401e-02 
-1.9714212e-03 0.0000000e+00 1.7502401e-02 
-3.9799578e-04 0.0000000e+00 8.7037837e-03 
-3.9799578e-04 0.0000000e+00 8.7037837e-03 
-2.0166103e-03 0.0000000e+00 1.8075089e-02 
-2.0166103e-03 0.0000000e+00 1.8075089e-02 
-4.3294534e-04 0.0000000e+00 9.4115234e-03 
-4.3294534e-04 0.0000000e+00 9.4115234e-03 
-2.0585762e-03 0.0000000e+00 1.8633160e-02 
-2.0585762e-03 0.0000000e+00 1.8633160e-02 
-4.6492878e-04 0.0000000e+00 1.0150069e-02 
-4.6492878e-04 0.0000000e+00 1.0150069e-02 
-2.0970437e-03 0.0000000e+00 1.9174935e-02 
-4.9334490e-04 0.0000000e+00 1.0921119e-02 
-2.0970437e-03 0.0000000e+00 1.9174935e-02 
-4.9334490e-04 0.0000000e+00 1.0921119e-02 
-5.1776226e-04 0.0000000e+00 1.1727694e-02 
-2.1320044e-03 0.0000000e+00 1.9699890e-02 
-5.1776226e-04 0.0000000e+00 1.1727694e-02 
-2.1320044e-03 0.0000000e+00 1.9699890e-02 
-5.3755284e-04 0.0000000e+00 1.2570346e-02 
-2.1632535e-03 0.0000000e+00 2.0206469e-02 
-5.3755284e-04 0.0000000e+00 1.2570346e-02 
-2.1632535e-03 0.0000000e+00 2.0206469e-02 
-5.5469660e-04 0.0000000e+00 1.3417947e-02 
-5.5469660e-04 0.0000000e+00 1.3417947e-02 
-2.1904033e-03 0.0000000e+00 2.0691988e-02 
-2.1904033e-03 0.0000000e+00 2.0691988e-02 
-5.7039665e-04 0.0000000e+00 1.4259193e-02 
-5.7039665e-04 0.0000000e+00 1.4259193e-02 
-2.2130944e-03 0.0000000e+00 2.1153577e-02 
-2.2130944e-03 0.0000000e+00 2.1153577e-02 
-5.8469470e-04 0.0000000e+00 1.5094198e-02 
-5.8469470e-04 0.0000000e+00 1.5094198e-02 
-2.2312572e-03 0.0000000e+00 2.1589618e-02 
-2.2312572e-03 0.0000000e+00 2.1589618e-02 
-5.9741598e-04 0.0000000e+00 1.5922110e-02 
-5.9741598e-04 0.0000000e+00 1.5922110e-02 
-2.2448641e-03 0.0000000e+00 2.1998471e-02 
-2.2448641e-03 0.0000000e+00 2.1998471e-02 
-6.0826750e-04 0.0000000e+00 1.6741493e-02 
-6.0826750e-04 0.0000000e+00 1.6741493e-02 
-2.2537233e-03 0.0000000e+00 2.2377100e-02 
-2.2537233e-03 0.0000000e+00 2.2377100e-02 
-6.1708888e-04 0.0000000e+00 1.7551478e-02 
-6.1708888e-04 0.0000000e+00 1.7551478e-02 
-2.2579085e-03 0.0000000e+00 2.2723668e-02 
-6.2364006e-04 0.0000000e+00 1.8350760e-02 
-2.2579085e-03 0.0000000e+00 2.2723668e-02 
-6.2364006e-04 0.0000000e+00 1.8350760e-02 
-6.2739595e-04 0.0000000e+00 1.9136585e-02 
-2.2575933e-03 0.0000000e+00 2.3036622e-02 
-6.2739595e-04 0.0000000e+00 1.9136585e-02 
-2.2575933e-03 0.0000000e+00 2.3036622e-02 
-6.2804970e-04 0.0000000e+00 1.9907077e-02 
-2.2530778e-03 0.0000000e+00 2.3315035e-02 
-6.2804970e-04 0.0000000e+00 1.9907077e-02 
-2.2530778e-03 0.0000000e+00 2.3315035e-02 
-6.2566988e-04 0.0000000e+00 2.0662138e-02 
-6.2566988e-04 0.0000000e+00 2.0662138e-02 
-2.2446486e-03 0.0000000e+00 2.3557529e-02 
-2.2446486e-03 0.0000000e+00 2.3557529e-02 
-6.1960774e-04 0.0000000e+00 2.1397839e-02 
-6.1960774e-04 0.0000000e+00 2.1397839e-02 
-2.2326518e-03 0.0000000e+00 2.3762809e-02 
-2.2326518e-03 0.0000000e+00 2.3762809e-02 
-6.0966022e-04 0.0000000e+00 2.2112265e-02 
-6.0966022e-04 0.0000000e+00 2.2112265e-02 
-2.2175930e-03 0.0000000e+00 2.3931030e-02 
-2.2175930e-03 0.0000000e+00 2.3931030e-02 
-5.9598071e-04 0.0000000e+00 2.2805345e-02 
-5.9598071e-04 0.0000000e+00 2.2805345e-02 
-2.2001011e-03 0.0000000e+00 2.4064412e-02 
-2.2001011e-03 0.0000000e+00 2.4064412e-02 
-5.7876869e-04 0.0000000e+00 2.3477269e-02 
-5.7876869e-04 0.0000000e+00 2.3477269e-02 
-2.1805640e-03 0.0000000e+00 2.4162119e-02 
-2.1805640e-03 0.0000000e+00 2.4162119e-02 
-5.5809063e-04 0.0000000e+00 2.4127414e-02 
-5.5809063e-04 0.0000000e+00 2.4127414e-02 
-2.1594946e-03 0.0000000e+00 2.4225753e-02 
-2.1594946e-03 0.0000000e+00 2.4225753e-02 
-5.3395109e-04 0.0000000e+00 2.4754628e-02 
-5.3395109e-04 0.0000000e+00 2.4754628e-02 
-2.1374008e-03 0.0000000e+00 2.4258858e-02 
-2.1374008e-03 0.0000000e+00 2.4258858e-02 
-5.0661099e-04 0.0000000e+00 2.5359411e-02 
-5.0661099e-04 0.0000000e+00 2.5359411e-02 
-2.1146128e-03 0.0000000e+00 2.4261471e-02 
-4.7659952e-04 0.0000000e+00 2.5944411e-02 
-2.1146128e-03 0.0000000e+00 2.4261471e-02 
-4.7659952e-04 0.0000000e+00 2.5944411e-02 
-2.0914712e-03 0.0000000e+00 2.4235379e-02 
-4.4392560e-04 0.0000000e+00 2.6508547e-02 
-2.0914712e-03 0.0000000e+00 2.4235379e-02 
-4.4392560e-04 0.0000000e+00 2.6508547e-02 
-4.0886028e-04 0.0000000e+00 2.7052800e-02 
-2.0682575e-03 0.0000000e+00 2.4184956e-02 
-4.0886028e-04 0.0000000e+00 2.7052800e-02 
-2.0682575e-03 0.0000000e+00 2.4184956e-02 
-3.7187629e-04 0.0000000e+00 2.7580159e-02 
-3.7187629e-04 0.0000000e+00 2.7580159e-02 
-2.0451621e-03 0.0000000e+00 2.4112141e-02 
-2.0451621e-03 0.0000000e+00 2.4112141e-02 
-3.3298400e-04 0.0000000e+00 2.8089740e-02 
-3.3298400e-04 0.0000000e+00 2.8089740e-02 
-2.0223440e-03 0.0000000e+00 2.4017998e-02 
-2.0223440e-03 0.0000000e+00 2.4017998e-02 
-2.9233873e-04 0.0000000e+00 2.8581966e-02 
-2.9233873e-04 0.0000000e+00 2.8581966e-02 
-1.9998683e-03 0.0000000e+00 2.3906573e-02 
-1.9998683e-03 0.0000000e+00 2.3906573e-02 
-2.5027198e-04 0.0000000e+00 2.9059256e-02 
-2.5027198e-04 0.0000000e+00 2.9059256e-02 
-1.9777766e-03 0.0000000e+00 2.3780096e-02 
-1.9777766e-03 0.0000000e+00 2.3780096e-02 
-2.0677254e-04 0.0000000e+00 2.9520560e-02 
-2.0677254e-04 0.0000000e+00 2.9520560e-02 
-1.9561030e-03 0.0000000e+00 2.3639958e-02 
-1.9561030e-03 0.0000000e+00 2.3639958e-02 
-1.6190033e-04 0.0000000e+00 2.9965478e-02 
-1.6190033e-04 0.0000000e+00 2.9965478e-02 
-1.9348048e-03 0.0000000e+00 2.3489060e-02 
-1.9348048e-03 0.0000000e+00 2.3489060e-02 
-1.1580288e-04 0.0000000e+00 3.0394699e-02 
-1.1580288e-04 0.0000000e+00 3.0394699e-02 
-1.9138587e-03 0.0000000e+00 2.3328996e-02 
-1.9138587e-03 0.0000000e+00 2.3328996e-02 
-6.8540553e-05 0.0000000e+00 3.0807808e-02 
-6.8540553e-05 0.0000000e+00 3.0807808e-02 
-1.8932902e-03 0.0000000e+00 2.3159870e-02 
-1.8932902e-03 0.0000000e+00 2.3159870e-02 
-2.0040657e-05 0.0000000e+00 3.1202188e-02 
-2.0040657e-05 0.0000000e+00 3.1202188e-02 
-1.8730547e-03 0.0000000e+00 2.2983270e-02 
-1.8730547e-03 0.0000000e+00 2.2983270e-02 
2.9585618e-05 0.0000000e+00 3.1577578e-02 
2.9585618e-05 0.0000000e+00 3.1577578e-02 
-1.8530995e-03 0.0000000e+00 2.2800698e-02 
-1.8530995e-03 0.0000000e+00 2.2800698e-02 
8.0233517e-05 0.0000000e+00 3.1933477e-02 
8.0233517e-05 0.0000000e+00 3.1933477e-02 
-1.8333534e-03 0.0000000e+00 2.2613841e-02 
-1.8333534e-03 0.0000000e+00 2.2613841e-02 
1.3181947e-04 0.0000000e+00 3.2268631e-02 
1.3181947e-04 0.0000000e+00 3.2268631e-02 
-1.8139474e-03 0.0000000e+00 2.2420275e-02 
1.8420544e-04 0.0000000e+00 3.2582568e-02 
-1.8139474e-03 0.0000000e+00 2.2420275e-02 
1.8420544e-04 0.0000000e+00 3.2582568e-02 
2.3723667e-04 0.0000000e+00 3.2875051e-02 
-1.7948527e-03 0.0000000e+00 2.2220826e-02 
2.3723667e-04 0.0000000e+00 3.2875051e-02 
-1.7948527e-03 0.0000000e+00 2.2220826e-02 
2.9076143e-04 0.0000000e+00 3.3145374e-02 
-1.7759056e-03 0.0000000e+00 2.2018669e-02 
2.9076143e-04 0.0000000e+00 3.3145374e-02 
-1.7759056e-03 0.0000000e+00 2.2018669e-02 
3.4460855e-04 0.0000000e+00 3.3393127e-02 
3.4460855e-04 0.0000000e+00 3.3393127e-02 
-1.7571178e-03 0.0000000e+00 2.1813638e-02 
-1.7571178e-03 0.0000000e+00 2.1813638e-02 
3.9859728e-04 0.0000000e+00 3.3617595e-02 
3.9859728e-04 0.0000000e+00 3.3617595e-02 
-1.7386375e-03 0.0000000e+00 2.1603205e-02 
-1.7386375e-03 0.0000000e+00 2.1603205e-02 
4.5253658e-04 0.0000000e+00 3.3819260e-02 
4.5253658e-04 0.0000000e+00 3.3819260e-02 
-1.7202916e-03 0.0000000e+00 2.1390463e-02 
-1.7202916e-03 0.0000000e+00 2.1390463e-02 
5.0623932e-04 0.0000000e+00 3.3998040e-02 
5.0623932e-04 0.0000000e+00 3.3998040e-02 
-1.7020917e-03 0.0000000e+00 2.1175253e-02 
-1.7020917e-03 0.0000000e+00 2.1175253e-02 
5.5952689e-04 0.0000000e+00 3.4154337e-02 
5.5952689e-04 0.0000000e+00 3.4154337e-02 
-1.6842515e-03 0.0000000e+00 2.0954107e-02 
-1.6842515e-03 0.0000000e+00 2.0954107e-02 
6.1226832e-04 0.0000000e+00 3.4289803e-02 
6.1226832e-04 0.0000000e+00 3.4289803e-02 
-1.6665140e-03 0.0000000e+00 2.0731304e-02 
-1.6665140e-03 0.0000000e+00 2.0731304e-02 
6.6431673e-04 0.0000000e+00 3.4404679e-02 
6.6431673e-04 0.0000000e+00 3.4404679e-02 
-1.6488979e-03 0.0000000e+00 2.0506561e-02 
-1.6488979e-03 0.0000000e+00 2.0506561e-02 
7.1549055e-04 0.0000000e+00 3.4498302e-02 
7.1549055e-04 0.0000000e+00 3.4498302e-02 
-1.6316339e-03 0.0000000e+00 2.0276310e-02 
-1.6316339e-03 0.0000000e+00 2.0276310e-02 
7.6576635e-04 0.0000000e+00 3.4573343e-02 
7.6576635e-04 0.0000000e+00 3.4573343e-02 
-1.6144739e-03 0.0000000e+00 2.0044462e-02 
-1.6144739e-03 0.0000000e+00 2.0044462e-02 
8.1507567e-04 0.0000000e+00 3.4630757e-02 
8.1507567e-04 0.0000000e+00 3.4630757e-02 
-1.5973931e-03 0.0000000e+00 1.9811407e-02 
-1.5973931e-03 0.0000000e+00 1.9811407e-02 
8.6332950e-04 0.0000000e+00 3.4670898e-02 
8.6332950e-04 0.0000000e+00 3.4670898e-02 
-1.5805710e-03 0.0000000e+00 1.9574469e-02 
-1.5805710e-03 0.0000000e+00 1.9574469e-02 
9.1051276e-04 0.0000000e+00 3.4695087e-02 
9.1051276e-04 0.0000000e+00 3.4695087e-02 
-1.5639948e-03 0.0000000e+00 1.9333906e-02 
-1.5639948e-03 0.0000000e+00 1.9333906e-02 
9.5676635e-04 0.0000000e+00 3.4706416e-02 
9.5676635e-04 0.0000000e+00 3.4706416e-02 
-1.5473879e-03 0.0000000e+00 1.9093792e-02 
-1.5473879e-03 0.0000000e+00 1.9093792e-02 
1.0019146e-03 0.0000000e+00 3.4706214e-02 
1.0019146e-03 0.0000000e+00 3.4706214e-02 
-1.5308966e-03 0.0000000e+00 1.8850565e-02 
-1.5308966e-03 0.0000000e+00 1.8850565e-02 
1.0550271e-03 0.0000000e+00 3.4692784e-02 
1.0550271e-03 0.0000000e+00 3.4692784e-02 
-1.5112559e-03 0.0000000e+00 1.8556551e-02 
-1.5112559e-03 0.0000000e+00 1.8556551e-02 
1.1173033e-03 0.0000000e+00 3.4659501e-02 
1.1173033e-03 0.0000000e+00 3.4659501e-02 
-1.4872273e-03 0.0000000e+00 1.8210391e-02 
-1.4872273e-03 0.0000000e+00 1.8210391e-02 
1.1910133e-03 0.0000000e+00 3.4607995e-02 
1.1910133e-03 0.0000000e+00 3.4607995e-02 
-1.4583394e-03 0.0000000e+00 1.7804342e-02 
-1.4583394e-03 0.0000000e+00 1.7804342e-02 
1.2682098e-03 0.0000000e+00 3.4548459e-02 
1.2682098e-03 0.0000000e+00 3.4548459e-02 
-1.4288395e-03 0.0000000e+00 1.7407537e-02 
-1.4288395e-03 0.0000000e+00 1.7407537e-02 
1.3452352e-03 0.0000000e+00 3.4487040e-02 
1.3452352e-03 0.0000000e+00 3.4487040e-02 
-1.3981500e-03 0.0000000e+00 1.7029519e-02 
-1.3981500e-03 0.0000000e+00 1.7029519e-02 
1.4230101e-03 0.0000000e+00 3.4433933e-02 
1.4230101e-03 0.0000000e+00 3.4433933e-02 
-1.3666727e-03 0.0000000e+00 1.6664626e-02 
-1.3666727e-03 0.0000000e+00 1.6664626e-02 
1.5020890e-03 0.0000000e+00 3.4395668e-02 
1.5020890e-03 0.0000000e+00 3.4395668e-02 
-1.3343076e-03 0.0000000e+00 1.6315289e-02 
-1.3343076e-03 0.0000000e+00 1.6315289e-02 
1.5830603e-03 0.0000000e+00 3.4379899e-02 
1.5830603e-03 0.0000000e+00 3.4379899e-02 
-1.3005151e-03 0.0000000e+00 1.5993061e-02 
-1.3005151e-03 0.0000000e+00 1.5993061e-02 
1.6652966e-03 0.0000000e+00 3.4379884e-02 
1.6652966e-03 0.0000000e+00 3.4379884e-02 
-1.2657690e-03 0.0000000e+00 1.5690783e-02 
-1.2657690e-03 0.0000000e+00 1.5690783e-02 
1.7496888e-03 0.0000000e+00 3.4408275e-02 
1.7496888e-03 0.0000000e+00 3.4408275e-02 
-1.2302415e-03 0.0000000e+00 1.5406295e-02 