# vtk DataFile Version 4.0
vtk output
ASCII
DATASET UNSTRUCTURED_GRID
POINTS 824 float
-6.4148600e-05 1.0000000e-02 -4.4525366e-03 
-1.0680180e-04 1.0000000e-02 -2.8088474e-03 
3.4513260e-04 1.0000000e-02 -6.0450544e-03 
1.3803532e-03 1.0000000e-02 -7.3230534e-03 
6.5829700e-05 1.0000000e-02 -1.1736922e-03 
2.7142144e-03 1.0000000e-02 -8.2851896e-03 
5.0392030e-04 1.0000000e-02 6.5784910e-04 
4.1780764e-03 1.0000000e-02 -9.0342357e-03 
1.1628646e-03 1.0000000e-02 2.4220088e-03 
5.7070961e-03 1.0000000e-02 -9.6390187e-03 
2.0046218e-03 1.0000000e-02 4.1066196e-03 
7.2731595e-03 1.0000000e-02 -1.0140047e-02 
-6.4148600e-05 0.0000000e+00 -4.4525366e-03 
-1.0680180e-04 0.0000000e+00 -2.8088474e-03 
3.4513260e-04 0.0000000e+00 -6.0450544e-03 
1.3803532e-03 0.0000000e+00 -7.3230534e-03 
6.5829700e-05 0.0000000e+00 -1.1736922e-03 
2.9952540e-03 1.0000000e-02 5.7082181e-03 
8.8622628e-03 1.0000000e-02 -1.0562311e-02 
2.7142144e-03 0.0000000e+00 -8.2851896e-03 
5.0392030e-04 0.0000000e+00 6.5784910e-04 
4.1780764e-03 0.0000000e+00 -9.0342357e-03 
1.1628646e-03 0.0000000e+00 2.4220088e-03 
1.0466628e-02 1.0000000e-02 -1.0922252e-02 
4.1067238e-03 1.0000000e-02 7.2284501e-03 
5.7070961e-03 0.0000000e+00 -9.6390187e-03 
2.0046218e-03 0.0000000e+00 4.1066196e-03 
7.2731595e-03 0.0000000e+00 -1.0140047e-02 
1.2081579e-02 1.0000000e-02 -1.1231240e-02 
5.3166988e-03 1.0000000e-02 8.6715129e-03 
2.9952540e-03 0.0000000e+00 5.7082181e-03 
8.8622628e-03 0.0000000e+00 -1.0562311e-02 
1.3704120e-02 1.0000000e-02 -1.1497501e-02 
1.0466628e-02 0.0000000e+00 -1.0922252e-02 
4.1067238e-03 0.0000000e+00 7.2284501e-03 
6.6076374e-03 1.0000000e-02 1.0042624e-02 
1.5332244e-02 1.0000000e-02 -1.1727173e-02 
1.2081579e-02 0.0000000e+00 -1.1231240e-02 
5.3166988e-03 0.0000000e+00 8.6715129e-03 
7.9658343e-03 1.0000000e-02 1.1347144e-02 
1.3704120e-02 0.0000000e+00 -1.1497501e-02 
1.6964543e-02 1.0000000e-02 -1.1925002e-02 
6.6076374e-03 0.0000000e+00 1.0042624e-02 
9.3804686e-03 1.0000000e-02 1.2590236e-02 
1.5332244e-02 0.0000000e+00 -1.1727173e-02 
1.8600004e-02 1.0000000e-02 -1.2094716e-02 
7.9658343e-03 0.0000000e+00 1.1347144e-02 
1.6964543e-02 0.0000000e+00 -1.1925002e-02 
1.0843002e-02 1.0000000e-02 1.3776601e-02 
2.0237876e-02 1.0000000e-02 -1.2239318e-02 
9.3804686e-03 0.0000000e+00 1.2590236e-02 
1.8600004e-02 0.0000000e+00 -1.2094716e-02 
1.2346566e-02 1.0000000e-02 1.4910517e-02 
2.1877591e-02 1.0000000e-02 -1.2361246e-02 
1.0843002e-02 0.0000000e+00 1.3776601e-02 
2.0237876e-02 0.0000000e+00 -1.2239318e-02 
1.3885623e-02 1.0000000e-02 1.5995768e-02 
2.3518711e-02 1.0000000e-02 -1.2462540e-02 
1.2346566e-02 0.0000000e+00 1.4910517e-02 
2.1877591e-02 0.0000000e+00 -1.2361246e-02 
2.5160890e-02 1.0000000e-02 -1.2544903e-02 
1.5455654e-02 1.0000000e-02 1.7035707e-02 
1.3885623e-02 0.0000000e+00 1.5995768e-02 
2.3518711e-02 0.0000000e+00 -1.2462540e-02 
2.6803852e-02 1.0000000e-02 -1.2609772e-02 
1.7052912e-02 1.0000000e-02 1.8033321e-02 
2.5160890e-02 0.0000000e+00 -1.2544903e-02 
1.5455654e-02 0.0000000e+00 1.7035707e-02 
2.8447376e-02 1.0000000e-02 -1.2658389e-02 
2.6803852e-02 0.0000000e+00 -1.2609772e-02 
1.7052912e-02 0.0000000e+00 1.8033321e-02 
1.8674284e-02 1.0000000e-02 1.8991246e-02 
3.0091279e-02 1.0000000e-02 -1.2691814e-02 
2.8447376e-02 0.0000000e+00 -1.2658389e-02 
1.8674284e-02 0.0000000e+00 1.8991246e-02 
2.0317149e-02 1.0000000e-02 1.9911822e-02 
3.0091279e-02 0.0000000e+00 -1.2691814e-02 
3.1735410e-02 1.0000000e-02 -1.2710971e-02 
2.0317149e-02 0.0000000e+00 1.9911822e-02 
2.1979295e-02 1.0000000e-02 2.0797113e-02 
3.1735410e-02 0.0000000e+00 -1.2710971e-02 
3.3379643e-02 1.0000000e-02 -1.2716676e-02 
2.1979295e-02 0.0000000e+00 2.0797113e-02 
2.3658832e-02 1.0000000e-02 2.1648949e-02 
3.3379643e-02 0.0000000e+00 -1.2716676e-02 
3.5023871e-02 1.0000000e-02 -1.2709629e-02 
2.3658832e-02 0.0000000e+00 2.1648949e-02 
2.5354100e-02 1.0000000e-02 2.2469029e-02 
3.5023871e-02 0.0000000e+00 -1.2709629e-02 
3.6668001e-02 1.0000000e-02 -1.2690457e-02 
2.5354100e-02 0.0000000e+00 2.2469029e-02 
2.7063712e-02 1.0000000e-02 2.3258772e-02 
3.6668001e-02 0.0000000e+00 -1.2690457e-02 
3.8312016e-02 1.0000000e-02 -1.2663038e-02 
2.7063712e-02 0.0000000e+00 2.3258772e-02 
3.8312016e-02 0.0000000e+00 -1.2663038e-02 
2.8786417e-02 1.0000000e-02 2.4019532e-02 
3.9956032e-02 1.0000000e-02 -1.2635752e-02 
2.8786417e-02 0.0000000e+00 2.4019532e-02 
3.9956032e-02 0.0000000e+00 -1.2635752e-02 
3.0521135e-02 1.0000000e-02 2.4752486e-02 
4.1600048e-02 1.0000000e-02 -1.2608467e-02 
3.0521135e-02 0.0000000e+00 2.4752486e-02 
4.1600048e-02 0.0000000e+00 -1.2608467e-02 
3.2266919e-02 1.0000000e-02 2.5458676e-02 
4.3299814e-02 1.0000000e-02 -1.2580255e-02 
3.2266919e-02 0.0000000e+00 2.5458676e-02 
4.3299814e-02 0.0000000e+00 -1.2580255e-02 
3.4022902e-02 1.0000000e-02 2.6139111e-02 
4.5339533e-02 1.0000000e-02 -1.2546402e-02 
3.4022902e-02 0.0000000e+00 2.6139111e-02 
4.5339533e-02 0.0000000e+00 -1.2546402e-02 
3.5788340e-02 1.0000000e-02 2.6794623e-02 
4.7787196e-02 1.0000000e-02 -1.2505778e-02 
3.5788340e-02 0.0000000e+00 2.6794623e-02 
3.7562554e-02 1.0000000e-02 2.7425996e-02 
4.7787196e-02 0.0000000e+00 -1.2505778e-02 
3.7562554e-02 0.0000000e+00 2.7425996e-02 
3.9344928e-02 1.0000000e-02 2.8033950e-02 
5.0379113e-02 1.0000000e-02 -1.2462760e-02 
3.9344928e-02 0.0000000e+00 2.8033950e-02 
5.0379113e-02 0.0000000e+00 -1.2462760e-02 
4.1134916e-02 1.0000000e-02 2.8619109e-02 
5.2971029e-02 1.0000000e-02 -1.2419741e-02 
4.1134916e-02 0.0000000e+00 2.8619109e-02 
5.2971029e-02 0.0000000e+00 -1.2419741e-02 
4.2932026e-02 1.0000000e-02 2.9182016e-02 
4.2932026e-02 0.0000000e+00 2.9182016e-02 
5.5562946e-02 1.0000000e-02 -1.2376723e-02 
4.5339682e-02 1.0000000e-02 2.9899231e-02 
5.5562946e-02 0.0000000e+00 -1.2376723e-02 
4.5339682e-02 0.0000000e+00 2.9899231e-02 
5.8154863e-02 1.0000000e-02 -1.2333705e-02 
4.7758221e-02 1.0000000e-02 3.0578844e-02 
5.8154863e-02 0.0000000e+00 -1.2333705e-02 
4.7758221e-02 0.0000000e+00 3.0578844e-02 
6.0746779e-02 1.0000000e-02 -1.2290686e-02 
5.0186760e-02 1.0000000e-02 3.1221807e-02 
6.0746779e-02 0.0000000e+00 -1.2290686e-02 
5.0186760e-02 0.0000000e+00 3.1221807e-02 
6.3338696e-02 1.0000000e-02 -1.2247668e-02 
5.2624513e-02 1.0000000e-02 3.1828903e-02 
6.3338696e-02 0.0000000e+00 -1.2247668e-02 
5.2624513e-02 0.0000000e+00 3.1828903e-02 
5.5070762e-02 1.0000000e-02 3.2400804e-02 
6.5930613e-02 1.0000000e-02 -1.2204650e-02 
5.5070762e-02 0.0000000e+00 3.2400804e-02 
6.5930613e-02 0.0000000e+00 -1.2204650e-02 
5.7524847e-02 1.0000000e-02 3.2938082e-02 
6.8522529e-02 1.0000000e-02 -1.2161631e-02 
5.7524847e-02 0.0000000e+00 3.2938082e-02 
6.8522529e-02 0.0000000e+00 -1.2161631e-02 
5.9986169e-02 1.0000000e-02 3.3441170e-02 
7.1114446e-02 1.0000000e-02 -1.2118613e-02 
5.9986169e-02 0.0000000e+00 3.3441170e-02 
7.1114446e-02 0.0000000e+00 -1.2118613e-02 
6.2454163e-02 1.0000000e-02 3.3910436e-02 
6.2454163e-02 0.0000000e+00 3.3910436e-02 
7.3706362e-02 1.0000000e-02 -1.2075595e-02 
7.3706362e-02 0.0000000e+00 -1.2075595e-02 
6.4928303e-02 1.0000000e-02 3.4346139e-02 
6.4928303e-02 0.0000000e+00 3.4346139e-02 
7.6298279e-02 1.0000000e-02 -1.2032577e-02 
7.6298279e-02 0.0000000e+00 -1.2032577e-02 
6.7408092e-02 1.0000000e-02 3.4748446e-02 
6.7408092e-02 0.0000000e+00 3.4748446e-02 
7.8890196e-02 1.0000000e-02 -1.1989558e-02 
7.8890196e-02 0.0000000e+00 -1.1989558e-02 
6.9893057e-02 1.0000000e-02 3.5117436e-02 
6.9893057e-02 0.0000000e+00 3.5117436e-02 
8.1482112e-02 1.0000000e-02 -1.1946540e-02 
8.1482112e-02 0.0000000e+00 -1.1946540e-02 
7.2382742e-02 1.0000000e-02 3.5453098e-02 
7.2382742e-02 0.0000000e+00 3.5453098e-02 
8.4074029e-02 1.0000000e-02 -1.1903522e-02 
7.4876707e-02 1.0000000e-02 3.5755332e-02 
8.4074029e-02 0.0000000e+00 -1.1903522e-02 
7.4876707e-02 0.0000000e+00 3.5755332e-02 
8.6665946e-02 1.0000000e-02 -1.1860503e-02 
7.7374516e-02 1.0000000e-02 3.6023948e-02 
8.6665946e-02 0.0000000e+00 -1.1860503e-02 
7.7374516e-02 0.0000000e+00 3.6023948e-02 
8.9257862e-02 1.0000000e-02 -1.1817485e-02 
7.9875738e-02 1.0000000e-02 3.6258665e-02 
8.9257862e-02 0.0000000e+00 -1.1817485e-02 
7.9875738e-02 0.0000000e+00 3.6258665e-02 
8.2379940e-02 1.0000000e-02 3.6459105e-02 
9.1849779e-02 1.0000000e-02 -1.1774467e-02 
8.2379940e-02 0.0000000e+00 3.6459105e-02 
9.1849779e-02 0.0000000e+00 -1.1774467e-02 
8.4886681e-02 1.0000000e-02 3.6624786e-02 
9.4441696e-02 1.0000000e-02 -1.1731448e-02 
8.4886681e-02 0.0000000e+00 3.6624786e-02 
9.4441696e-02 0.0000000e+00 -1.1731448e-02 
8.7395510e-02 1.0000000e-02 3.6755108e-02 
8.7395510e-02 0.0000000e+00 3.6755108e-02 
9.7033612e-02 1.0000000e-02 -1.1688430e-02 
9.7033612e-02 0.0000000e+00 -1.1688430e-02 
8.9905951e-02 1.0000000e-02 3.6849401e-02 
8.9905951e-02 0.0000000e+00 3.6849401e-02 
9.9625529e-02 1.0000000e-02 -1.1645412e-02 
9.9625529e-02 0.0000000e+00 -1.1645412e-02 
9.2417505e-02 1.0000000e-02 3.6906832e-02 
9.2417505e-02 0.0000000e+00 3.6906832e-02 
1.0221745e-01 1.0000000e-02 -1.1602393e-02 
1.0221745e-01 0.0000000e+00 -1.1602393e-02 
9.4929640e-02 1.0000000e-02 3.6926425e-02 
9.4929640e-02 0.0000000e+00 3.6926425e-02 
1.0480936e-01 1.0000000e-02 -1.1559375e-02 
1.0480936e-01 0.0000000e+00 -1.1559375e-02 
9.7441776e-02 1.0000000e-02 3.6907077e-02 
9.7441776e-02 0.0000000e+00 3.6907077e-02 
1.0740128e-01 1.0000000e-02 -1.1516357e-02 
1.0740128e-01 0.0000000e+00 -1.1516357e-02 
9.9953281e-02 1.0000000e-02 3.6847529e-02 
9.9953281e-02 0.0000000e+00 3.6847529e-02 
1.0999320e-01 1.0000000e-02 -1.1473339e-02 
1.0246345e-01 1.0000000e-02 3.6746314e-02 
1.0999320e-01 0.0000000e+00 -1.1473339e-02 
1.0246345e-01 0.0000000e+00 3.6746314e-02 
1.0497150e-01 1.0000000e-02 3.6601738e-02 
1.1258511e-01 1.0000000e-02 -1.1430320e-02 
1.0497150e-01 0.0000000e+00 3.6601738e-02 
1.1258511e-01 0.0000000e+00 -1.1430320e-02 
1.0747666e-01 1.0000000e-02 3.6413638e-02 
1.1517703e-01 1.0000000e-02 -1.1387302e-02 
1.0747666e-01 0.0000000e+00 3.6413638e-02 
[...]
POINT_DATA 824
FIELD FieldData 2
DISPLACEMENT 3 824  float
0.0000000e+00 0.0000000e+00 0.0000000e+00 
0.0000000e+00 0.0000000e+00 0.0000000e+00 
0.0000000e+00 0.0000000e+00 0.0000000e+00 
0.0000000e+00 0.0000000e+00 0.0000000e+00 
0.0000000e+00 0.0000000e+00 0.0000000e+00 
0.0000000e+00 0.0000000e+00 0.0000000e+00 
0.0000000e+00 0.0000000e+00 0.0000000e+00 
0.0000000e+00 0.0000000e+00 0.0000000e+00 
0.0000000e+00 0.0000000e+00 0.0000000e+00 
0.0000000e+00 0.0000000e+00 0.0000000e+00 
0.0000000e+00 0.0000000e+00 0.0000000e+00 
0.0000000e+00 0.0000000e+00 0.0000000e+00 
0.0000000e+00 0.0000000e+00 0.0000000e+00 
0.0000000e+00 0.0000000e+00 0.0000000e+00 
0.0000000e+00 0.0000000e+00 0.0000000e+00 
0.0000000e+00 0.0000000e+00 0.0000000e+00 
0.0000000e+00 0.0000000e+00 0.0000000e+00 
0.0000000e+00 0.0000000e+00 0.0000000e+00 
0.0000000e+00 0.0000000e+00 0.0000000e+00 
0.0000000e+00 0.0000000e+00 0.0000000e+00 
0.0000000e+00 0.0000000e+00 0.0000000e+00 
0.0000000e+00 0.0000000e+00 0.0000000e+00 
0.0000000e+00 0.0000000e+00 0.0000000e+00 
0.0000000e+00 0.0000000e+00 0.0000000e+00 
0.0000000e+00 0.0000000e+00 0.0000000e+00 
0.0000000e+00 0.0000000e+00 0.0000000e+00 
0.0000000e+00 0.0000000e+00 0.0000000e+00 
0.0000000e+00 0.0000000e+00 0.0000000e+00 
0.0000000e+00 0.0000000e+00 0.0000000e+00 
0.0000000e+00 0.0000000e+00 0.0000000e+00 
0.0000000e+00 0.0000000e+00 0.0000000e+00 
0.0000000e+00 0.0000000e+00 0.0000000e+00 
0.0000000e+00 0.0000000e+00 0.0000000e+00 
0.0000000e+00 0.0000000e+00 0.0000000e+00 
0.0000000e+00 0.0000000e+00 0.0000000e+00 
0.0000000e+00 0.0000000e+00 0.0000000e+00 
0.0000000e+00 0.0000000e+00 0.0000000e+00 
0.0000000e+00 0.0000000e+00 0.0000000e+00 
0.0000000e+00 0.0000000e+00 0.0000000e+00 
0.0000000e+00 0.0000000e+00 0.0000000e+00 
0.0000000e+00 0.0000000e+00 0.0000000e+00 
0.0000000e+00 0.0000000e+00 0.0000000e+00 
0.0000000e+00 0.0000000e+00 0.0000000e+00 
0.0000000e+00 0.0000000e+00 0.0000000e+00 
0.0000000e+00 0.0000000e+00 0.0000000e+00 
0.0000000e+00 0.0000000e+00 0.0000000e+00 
0.0000000e+00 0.0000000e+00 0.0000000e+00 
0.0000000e+00 0.0000000e+00 0.0000000e+00 
0.0000000e+00 0.0000000e+00 0.0000000e+00 
0.0000000e+00 0.0000000e+00 0.0000000e+00 
0.0000000e+00 0.0000000e+00 0.0000000e+00 
0.0000000e+00 0.0000000e+00 0.0000000e+00 
0.0000000e+00 0.0000000e+00 0.0000000e+00 
0.0000000e+00 0.0000000e+00 0.0000000e+00 
0.0000000e+00 0.0000000e+00 0.0000000e+00 
0.0000000e+00 0.0000000e+00 0.0000000e+00 
0.0000000e+00 0.0000000e+00 0.0000000e+00 
0.0000000e+00 0.0000000e+00 0.0000000e+00 
0.0000000e+00 0.0000000e+00 0.0000000e+00 
0.0000000e+00 0.0000000e+00 0.0000000e+00 
0.0000000e+00 0.0000000e+00 0.0000000e+00 
0.0000000e+00 0.0000000e+00 0.0000000e+00 
0.0000000e+00 0.0000000e+00 0.0000000e+00 
0.0000000e+00 0.0000000e+00 0.0000000e+00 
0.0000000e+00 0.0000000e+00 0.0000000e+00 
0.0000000e+00 0.0000000e+00 0.0000000e+00 
0.0000000e+00 0.0000000e+00 0.0000000e+00 
0.0000000e+00 0.0000000e+00 0.0000000e+00 
0.0000000e+00 0.0000000e+00 0.0000000e+00 
0.0000000e+00 0.0000000e+00 0.0000000e+00 
0.0000000e+00 0.0000000e+00 0.0000000e+00 
0.0000000e+00 0.0000000e+00 0.0000000e+00 
0.0000000e+00 0.0000000e+00 0.0000000e+00 
0.0000000e+00 0.0000000e+00 0.0000000e+00 
0.0000000e+00 0.0000000e+00 0.0000000e+00 
0.0000000e+00 0.0000000e+00 0.0000000e+00 
0.0000000e+00 0.0000000e+00 0.0000000e+00 
0.0000000e+00 0.0000000e+00 0.0000000e+00 
0.0000000e+00 0.0000000e+00 0.0000000e+00 
0.0000000e+00 0.0000000e+00 0.0000000e+00 
0.0000000e+00 0.0000000e+00 0.0000000e+00 
0.0000000e+00 0.0000000e+00 0.0000000e+00 
0.0000000e+00 0.0000000e+00 0.0000000e+00 
0.0000000e+00 0.0000000e+00 0.0000000e+00 
0.0000000e+00 0.0000000e+00 0.0000000e+00 
0.0000000e+00 0.0000000e+00 0.0000000e+00 
0.0000000e+00 0.0000000e+00 0.0000000e+00 
0.0000000e+00 0.0000000e+00 0.0000000e+00 
0.0000000e+00 0.0000000e+00 0.0000000e+00 
0.0000000e+00 0.0000000e+00 0.0000000e+00 
0.0000000e+00 0.0000000e+00 0.0000000e+00 
0.0000000e+00 0.0000000e+00 0.0000000e+00 
0.0000000e+00 0.0000000e+00 0.0000000e+00 
0.0000000e+00 0.0000000e+00 0.0000000e+00 
0.0000000e+00 0.0000000e+00 0.0000000e+00 
0.0000000e+00 0.0000000e+00 0.0000000e+00 
0.0000000e+00 0.0000000e+00 0.0000000e+00 
-3.3024633e-06 0.0000000e+00 1.0330365e-04 
0.0000000e+00 0.0000000e+00 0.0000000e+00 
-3.3024633e-06 0.0000000e+00 1.0330365e-04 
0.0000000e+00 0.0000000e+00 0.0000000e+00 
-7.3521833e-06 0.0000000e+00 2.1363365e-04 
0.0000000e+00 0.0000000e+00 0.0000000e+00 
-7.3521833e-06 0.0000000e+00 2.1363365e-04 
0.0000000e+00 0.0000000e+00 0.0000000e+00 
-1.2035124e-05 0.0000000e+00 3.3235503e-04 
0.0000000e+00 0.0000000e+00 0.0000000e+00 
-1.2035124e-05 0.0000000e+00 3.3235503e-04 
0.0000000e+00 0.0000000e+00 0.0000000e+00 
-1.8184653e-05 0.0000000e+00 4.7990075e-04 
0.0000000e+00 0.0000000e+00 0.0000000e+00 
-1.8184653e-05 0.0000000e+00 4.7990075e-04 
0.0000000e+00 0.0000000e+00 0.0000000e+00 
-2.6135649e-05 0.0000000e+00 6.6224642e-04 
0.0000000e+00 0.0000000e+00 0.0000000e+00 
0.0000000e+00 0.0000000e+00 0.0000000e+00 
-2.6135649e-05 0.0000000e+00 6.6224642e-04 
0.0000000e+00 0.0000000e+00 0.0000000e+00 
9.1249408e-05 0.0000000e+00 -4.6658129e-04 
-3.4806981e-05 0.0000000e+00 8.5767518e-04 
9.1249408e-05 0.0000000e+00 -4.6658129e-04 
-3.4806981e-05 0.0000000e+00 8.5767518e-04 
1.7538936e-04 0.0000000e+00 -9.1583169e-04 
-4.3856823e-05 0.0000000e+00 1.0564971e-03 
1.7538936e-04 0.0000000e+00 -9.1583169e-04 
-4.3856823e-05 0.0000000e+00 1.0564971e-03 
2.5284396e-04 0.0000000e+00 -1.3476684e-03 
2.5284396e-04 0.0000000e+00 -1.3476684e-03 
-5.3179483e-05 0.0000000e+00 1.2576745e-03 
3.4658072e-04 0.0000000e+00 -1.8981243e-03 
-5.3179483e-05 0.0000000e+00 1.2576745e-03 
3.4658072e-04 0.0000000e+00 -1.8981243e-03 
-6.2265828e-05 0.0000000e+00 1.4563649e-03 
4.3022208e-04 0.0000000e+00 -2.4205451e-03 
-6.2265828e-05 0.0000000e+00 1.4563649e-03 
4.3022208e-04 0.0000000e+00 -2.4205451e-03 
-7.1283086e-05 0.0000000e+00 1.6540061e-03 
5.0447785e-04 0.0000000e+00 -2.9138949e-03 
-7.1283086e-05 0.0000000e+00 1.6540061e-03 
5.0447785e-04 0.0000000e+00 -2.9138949e-03 
-8.0327617e-05 0.0000000e+00 1.8518846e-03 
5.7016952e-04 0.0000000e+00 -3.3796522e-03 
-8.0327617e-05 0.0000000e+00 1.8518846e-03 
5.7016952e-04 0.0000000e+00 -3.3796522e-03 
6.2803455e-04 0.0000000e+00 -3.8190656e-03 
-8.8974995e-05 0.0000000e+00 2.0456522e-03 
6.2803455e-04 0.0000000e+00 -3.8190656e-03 
-8.8974995e-05 0.0000000e+00 2.0456522e-03 
6.7866904e-04 0.0000000e+00 -4.2327930e-03 
-9.7392407e-05 0.0000000e+00 2.2367445e-03 
6.7866904e-04 0.0000000e+00 -4.2327930e-03 
-9.7392407e-05 0.0000000e+00 2.2367445e-03 
7.2248780e-04 0.0000000e+00 -4.6183963e-03 
-1.0587818e-04 0.0000000e+00 2.4284467e-03 
7.2248780e-04 0.0000000e+00 -4.6183963e-03 
-1.0587818e-04 0.0000000e+00 2.4284467e-03 
7.6011989e-04 0.0000000e+00 -4.9773886e-03 
7.6011989e-04 0.0000000e+00 -4.9773886e-03 
-1.1392258e-04 0.0000000e+00 2.6155131e-03 
-1.1392258e-04 0.0000000e+00 2.6155131e-03 
7.9211268e-04 0.0000000e+00 -5.3115555e-03 
7.9211268e-04 0.0000000e+00 -5.3115555e-03 
-1.2162623e-04 0.0000000e+00 2.7987932e-03 
-1.2162623e-04 0.0000000e+00 2.7987932e-03 
8.1880978e-04 0.0000000e+00 -5.6190033e-03 
8.1880978e-04 0.0000000e+00 -5.6190033e-03 
-1.2917983e-04 0.0000000e+00 2.9806896e-03 
-1.2917983e-04 0.0000000e+00 2.9806896e-03 
8.4065253e-04 0.0000000e+00 -5.8985558e-03 
8.4065253e-04 0.0000000e+00 -5.8985558e-03 
-1.3611990e-04 0.0000000e+00 3.1558766e-03 
-1.3611990e-04 0.0000000e+00 3.1558766e-03 
8.5816383e-04 0.0000000e+00 -6.1527892e-03 
8.5816383e-04 0.0000000e+00 -6.1527892e-03 
-1.4257033e-04 0.0000000e+00 3.3253898e-03 
8.7164807e-04 0.0000000e+00 -6.3794646e-03 
-1.4257033e-04 0.0000000e+00 3.3253898e-03 
8.7164807e-04 0.0000000e+00 -6.3794646e-03 
-1.4876183e-04 0.0000000e+00 3.4923667e-03 
8.8152092e-04 0.0000000e+00 -6.5769834e-03 
-1.4876183e-04 0.0000000e+00 3.4923667e-03 
8.8152092e-04 0.0000000e+00 -6.5769834e-03 
-1.5454104e-04 0.0000000e+00 3.6552283e-03 
8.8828080e-04 0.0000000e+00 -6.7480866e-03 
-1.5454104e-04 0.0000000e+00 3.6552283e-03 
8.8828080e-04 0.0000000e+00 -6.7480866e-03 
8.9222543e-04 0.0000000e+00 -6.8899359e-03 
-1.5977883e-04 0.0000000e+00 3.8114184e-03 
8.9222543e-04 0.0000000e+00 -6.8899359e-03 
-1.5977883e-04 0.0000000e+00 3.8114184e-03 
8.9368904e-04 0.0000000e+00 -6.9983000e-03 
-1.6475658e-04 0.0000000e+00 3.9648933e-03 
8.9368904e-04 0.0000000e+00 -6.9983000e-03 
-1.6475658e-04 0.0000000e+00 3.9648933e-03 
8.9328773e-04 0.0000000e+00 -7.0779722e-03 
8.9328773e-04 0.0000000e+00 -7.0779722e-03 
-1.6939267e-04 0.0000000e+00 4.1147255e-03 
-1.6939267e-04 0.0000000e+00 4.1147255e-03 
8.9136425e-04 0.0000000e+00 -7.1255173e-03 
8.9136425e-04 0.0000000e+00 -7.1255173e-03 
-1.7358676e-04 0.0000000e+00 4.2587191e-03 
-1.7358676e-04 0.0000000e+00 4.2587191e-03 
8.8832149e-04 0.0000000e+00 -7.1360664e-03 
8.8832149e-04 0.0000000e+00 -7.1360664e-03 
-1.7747502e-04 0.0000000e+00 4.3992952e-03 
-1.7747502e-04 0.0000000e+00 4.3992952e-03 
8.8478935e-04 0.0000000e+00 -7.1109751e-03 
8.8478935e-04 0.0000000e+00 -7.1109751e-03 
-1.8101248e-04 0.0000000e+00 4.5358648e-03 
-1.8101248e-04 0.0000000e+00 4.5358648e-03 
8.8129023e-04 0.0000000e+00 -7.0496620e-03 
8.8129023e-04 0.0000000e+00 -7.0496620e-03 
-1.8408890e-04 0.0000000e+00 4.6670296e-03 
-1.8408890e-04 0.0000000e+00 4.6670296e-03 
8.7835966e-04 0.0000000e+00 -6.9465613e-03 
8.7835966e-04 0.0000000e+00 -6.9465613e-03 
-1.8675458e-04 0.0000000e+00 4.7920846e-03 
8.7680288e-04 0.0000000e+00 -6.8027894e-03 
-1.8675458e-04 0.0000000e+00 4.7920846e-03 
8.7680288e-04 0.0000000e+00 -6.8027894e-03 
8.7748620e-04 0.0000000e+00 -6.6205966e-03 
-1.8917757e-04 0.0000000e+00 4.9141231e-03 
8.7748620e-04 0.0000000e+00 -6.6205966e-03 
-1.8917757e-04 0.0000000e+00 4.9141231e-03 
8.8095446e-04 0.0000000e+00 -6.3921438e-03 
-1.9124763e-04 0.0000000e+00 5.0316641e-03 
8.8095446e-04 0.0000000e+00 -6.3921438e-03 
-1.9124763e-04 0.0000000e+00 5.0316641e-03 
8.8538640e-04 0.0000000e+00 -6.1515608e-03 
8.8538640e-04 0.0000000e+00 -6.1515608e-03 
-1.9282825e-04 0.0000000e+00 5.1427562e-03 
-1.9282825e-04 0.0000000e+00 5.1427562e-03 
8.8991623e-04 0.0000000e+00 -5.9156853e-03 
8.8991623e-04 0.0000000e+00 -5.9156853e-03 
-1.9409731e-04 0.0000000e+00 5.2486442e-03 
-1.9409731e-04 0.0000000e+00 5.2486442e-03 
8.9435282e-04 0.0000000e+00 -5.6773587e-03 
8.9435282e-04 0.0000000e+00 -5.6773587e-03 
-1.9514558e-04 0.0000000e+00 5.3514115e-03 
-1.9514558e-04 0.0000000e+00 5.3514115e-03 
8.9882312e-04 0.0000000e+00 -5.4399273e-03 
8.9882312e-04 0.0000000e+00 -5.4399273e-03 
-1.9585412e-04 0.0000000e+00 5.4492048e-03 
-1.9585412e-04 0.0000000e+00 5.4492048e-03 
9.0340380e-04 0.0000000e+00 -5.2080475e-03 
9.0340380e-04 0.0000000e+00 -5.2080475e-03 
-1.9619680e-04 0.0000000e+00 5.5413208e-03 
-1.9619680e-04 0.0000000e+00 5.5413208e-03 
9.0798533e-04 0.0000000e+00 -4.9788438e-03 
9.0798533e-04 0.0000000e+00 -4.9788438e-03 
-1.9618242e-04 0.0000000e+00 5.6269404e-03 
9.1262792e-04 0.0000000e+00 -4.7514767e-03 
-1.9618242e-04 0.0000000e+00 5.6269404e-03 
9.1262792e-04 0.0000000e+00 -4.7514767e-03 
9.1737033e-04 0.0000000e+00 -4.5302514e-03 
-1.9593157e-04 0.0000000e+00 5.7078339e-03 
9.1737033e-04 0.0000000e+00 -4.5302514e-03 
-1.9593157e-04 0.0000000e+00 5.7078339e-03 
9.2211219e-04 0.0000000e+00 -4.3122108e-03 
-1.9553085e-04 0.0000000e+00 5.7860854e-03 
9.2211219e-04 0.0000000e+00 -4.3122108e-03 
-1.9553085e-04 0.0000000e+00 5.7860854e-03 
9.2683506e-04 0.0000000e+00 -4.0935148e-03 
9.2683506e-04 0.0000000e+00 -4.0935148e-03 
-1.9495631e-04 0.0000000e+00 5.8610729e-03 
-1.9495631e-04 0.0000000e+00 5.8610729e-03 
9.3163888e-04 0.0000000e+00 -3.8814437e-03 
9.3163888e-04 0.0000000e+00 -3.8814437e-03 
-1.9423984e-04 0.0000000e+00 5.9332671e-03 
-1.9423984e-04 0.0000000e+00 5.9332671e-03 
9.3644292e-04 0.0000000e+00 -3.6733286e-03 
9.3644292e-04 0.0000000e+00 -3.6733286e-03 
-1.9339160e-04 0.0000000e+00 6.0027443e-03 
-1.9339160e-04 0.0000000e+00 6.0027443e-03 
9.4126868e-04 0.0000000e+00 -3.4661425e-03 
9.4126868e-04 0.0000000e+00 -3.4661425e-03 
-1.9244560e-04 0.0000000e+00 6.0699919e-03 
-1.9244560e-04 0.0000000e+00 6.0699919e-03 
9.4620563e-04 0.0000000e+00 -3.2643574e-03 
9.4620563e-04 0.0000000e+00 -3.2643574e-03 
-1.9146244e-04 0.0000000e+00 6.1363236e-03 
-1.9146244e-04 0.0000000e+00 6.1363236e-03 
9.5117423e-04 0.0000000e+00 -3.0713508e-03 
9.5117423e-04 0.0000000e+00 -3.0713508e-03 
-1.9046007e-04 0.0000000e+00 6.2022031e-03 
-1.9046007e-04 0.0000000e+00 6.2022031e-03 
9.5610976e-04 0.0000000e+00 -2.8844924e-03 
9.5610976e-04 0.0000000e+00 -2.8844924e-03 
-1.8940212e-04 0.0000000e+00 6.2667410e-03 
-1.8940212e-04 0.0000000e+00 6.2667410e-03 
9.6107324e-04 0.0000000e+00 -2.6999145e-03 
9.6107324e-04 0.0000000e+00 -2.6999145e-03 
-1.8832463e-04 0.0000000e+00 6.3307850e-03 
9.6609995e-04 0.0000000e+00 -2.5225455e-03 
-1.8832463e-04 0.0000000e+00 6.3307850e-03 
9.6609995e-04 0.0000000e+00 -2.5225455e-03 
-1.8722102e-04 0.0000000e+00 6.3941360e-03 
9.7106919e-04 0.0000000e+00 -2.3548449e-03 
-1.8722102e-04 0.0000000e+00 6.3941360e-03 
9.7106919e-04 0.0000000e+00 -2.3548449e-03 
9.7594352e-04 0.0000000e+00 -2.1933907e-03 
-1.8606486e-04 0.0000000e+00 6.4560587e-03 
9.7594352e-04 0.0000000e+00 -2.1933907e-03 
-1.8606486e-04 0.0000000e+00 6.4560587e-03 
9.8081703e-04 0.0000000e+00 -2.0344080e-03 
9.8081703e-04 0.0000000e+00 -2.0344080e-03 
-1.8487724e-04 0.0000000e+00 6.5171117e-03 
-1.8487724e-04 0.0000000e+00 6.5171117e-03 
9.8567015e-04 0.0000000e+00 -1.8817094e-03 
9.8567015e-04 0.0000000e+00 -1.8817094e-03 
-1.8367004e-04 0.0000000e+00 6.5775947e-03 
-1.8367004e-04 0.0000000e+00 6.5775947e-03 
9.9048175e-04 0.0000000e+00 -1.7355610e-03 
9.9048175e-04 0.0000000e+00 -1.7355610e-03 
-1.8239797e-04 0.0000000e+00 6.6361485e-03 
-1.8239797e-04 0.0000000e+00 6.6361485e-03 
9.9514648e-04 0.0000000e+00 -1.5973030e-03 
9.9514648e-04 0.0000000e+00 -1.5973030e-03 
-1.8107216e-04 0.0000000e+00 6.6930585e-03 
-1.8107216e-04 0.0000000e+00 6.6930585e-03 
9.9977456e-04 0.0000000e+00 -1.4620446e-03 
9.9977456e-04 0.0000000e+00 -1.4620446e-03 
-1.7971719e-04 0.0000000e+00 6.7489644e-03 
-1.7971719e-04 0.0000000e+00 6.7489644e-03 
1.0043508e-03 0.0000000e+00 -1.3304982e-03 
1.0043508e-03 0.0000000e+00 -1.3304982e-03 
-1.7824418e-04 0.0000000e+00 6.8009871e-03 
-1.7824418e-04 0.0000000e+00 6.8009871e-03 
1.0088512e-03 0.0000000e+00 -1.2036614e-03 
1.0088512e-03 0.0000000e+00 -1.2036614e-03 
-1.7666910e-04 0.0000000e+00 6.8494712e-03 
-1.7666910e-04 0.0000000e+00 6.8494712e-03 
1.0131890e-03 0.0000000e+00 -1.0828238e-03 
1.0131890e-03 0.0000000e+00 -1.0828238e-03 
-1.7506840e-04 0.0000000e+00 6.8970360e-03 
-1.7506840e-04 0.0000000e+00 6.8970360e-03 
1.0175082e-03 0.0000000e+00 -9.6290096e-04 
1.0175082e-03 0.0000000e+00 -9.6290096e-04 
-1.7335483e-04 0.0000000e+00 6.9405485e-03 
-1.7335483e-04 0.0000000e+00 6.9405485e-03 
1.0217879e-03 0.0000000e+00 -8.4478967e-04 
1.0217879e-03 0.0000000e+00 -8.4478967e-04 
-1.7151354e-04 0.0000000e+00 6.9789022e-03 
-1.7151354e-04 0.0000000e+00 6.9789022e-03 
1.0260011e-03 0.0000000e+00 -7.2955858e-04 
1.0260011e-03 0.0000000e+00 -7.2955858e-04 
-1.6961091e-04 0.0000000e+00 7.0146135e-03 
-1.6961091e-04 0.0000000e+00 7.0146135e-03 
1.0301574e-03 0.0000000e+00 -6.1662761e-04 
1.0301574e-03 0.0000000e+00 -6.1662761e-04 
-1.6761254e-04 0.0000000e+00 7.0466511e-03 
1.0341981e-03 0.0000000e+00 -5.0715218e-04 
-1.6761254e-04 0.0000000e+00 7.0466511e-03 
1.0341981e-03 0.0000000e+00 -5.0715218e-04 
1.0381708e-03 0.0000000e+00 -3.9930727e-04 
-1.6550195e-04 0.0000000e+00 7.0739113e-03 
1.0381708e-03 0.0000000e+00 -3.9930727e-04 
-1.6550195e-04 0.0000000e+00 7.0739113e-03 
1.0421666e-03 0.0000000e+00 -2.9067044e-04 
-1.6331434e-04 0.0000000e+00 7.0969962e-03 
1.0421666e-03 0.0000000e+00 -2.9067044e-04 
-1.6331434e-04 0.0000000e+00 7.0969962e-03 
1.0461644e-03 0.0000000e+00 -1.8195799e-04 
1.0461644e-03 0.0000000e+00 -1.8195799e-04 
-1.6107272e-04 0.0000000e+00 7.1169025e-03 
-1.6107272e-04 0.0000000e+00 7.1169025e-03 
1.0501391e-03 0.0000000e+00 -7.3980438e-05 
1.0501391e-03 0.0000000e+00 -7.3980438e-05 
-1.5873992e-04 0.0000000e+00 7.1319108e-03 
-1.5873992e-04 0.0000000e+00 7.1319108e-03 
1.0540906e-03 0.0000000e+00 3.3281348e-05 
1.0540906e-03 0.0000000e+00 3.3281348e-05 
-1.5634258e-04 0.0000000e+00 7.1421739e-03 
-1.5634258e-04 0.0000000e+00 7.1421739e-03 
1.0580031e-03 0.0000000e+00 1.3950452e-04 
1.0580031e-03 0.0000000e+00 1.3950452e-04 
-1.5389732e-04 0.0000000e+00 7.1484016e-03 
-1.5389732e-04 0.0000000e+00 7.1484016e-03 
1.0619583e-03 0.0000000e+00 2.4696277e-04 
1.0619583e-03 0.0000000e+00 2.4696277e-04 
-1.5140855e-04 0.0000000e+00 7.1503894e-03 
-1.5140855e-04 0.0000000e+00 7.1503894e-03 
1.0659614e-03 0.0000000e+00 3.5580778e-04 
1.0659614e-03 0.0000000e+00 3.5580778e-04 
-1.4887555e-04 0.0000000e+00 7.1486470e-03 
-1.4887555e-04 0.0000000e+00 7.1486470e-03 
1.0700006e-03 0.0000000e+00 4.6569078e-04 
1.0700006e-03 0.0000000e+00 4.6569078e-04 
-1.4630794e-04 0.0000000e+00 7.1420312e-03 
-1.4630794e-04 0.0000000e+00 7.1420312e-03 
1.0740531e-03 0.0000000e+00 5.7595544e-04 
1.0740531e-03 0.0000000e+00 5.7595544e-04 
-1.4371676e-04 0.0000000e+00 7.1309891e-03 
-1.4371676e-04 0.0000000e+00 7.1309891e-03 
1.0781494e-03 0.0000000e+00 6.8742147e-04 
1.0781494e-03 0.0000000e+00 6.8742147e-04 
-1.4109556e-04 0.0000000e+00 7.1153867e-03 
-1.4109556e-04 0.0000000e+00 7.1153867e-03 
1.0822929e-03 0.0000000e+00 8.0015906e-04 
1.0822929e-03 0.0000000e+00 8.0015906e-04 
-1.3846426e-04 0.0000000e+00 7.0938268e-03 
-1.3846426e-04 0.0000000e+00 7.0938268e-03 
1.0864744e-03 0.0000000e+00 9.1392064e-04 
1.0864744e-03 0.0000000e+00 9.1392064e-04 
-1.3583605e-04 0.0000000e+00 7.0664723e-03 
-1.3583605e-04 0.0000000e+00 7.0664723e-03 
1.0907046e-03 0.0000000e+00 1.0290220e-03 
1.0907046e-03 0.0000000e+00 1.0290220e-03 
-1.3321987e-04 0.0000000e+00 7.0342831e-03 
-1.3321987e-04 0.0000000e+00 7.0342831e-03 
1.0950131e-03 0.0000000e+00 1.1462736e-03 
1.0950131e-03 0.0000000e+00 1.1462736e-03 
-1.3061280e-04 0.0000000e+00 6.9971745e-03 
-1.3061280e-04 0.0000000e+00 6.9971745e-03 
1.0993525e-03 0.0000000e+00 1.2643887e-03 
1.0993525e-03 0.0000000e+00 1.2643887e-03 
-1.2804392e-04 0.0000000e+00 6.9537368e-03 
-1.2804392e-04 0.0000000e+00 6.9537368e-03 
1.1046337e-03 0.0000000e+00 1.4081927e-03 
1.1046337e-03 0.0000000e+00 1.4081927e-03 
-1.2499565e-04 0.0000000e+00 6.8959999e-03 
-1.2499565e-04 0.0000000e+00 6.8959999e-03 
1.1111550e-03 0.0000000e+00 1.5859896e-03 
1.1111550e-03 0.0000000e+00 1.5859896e-03 
-1.2150538e-04 0.0000000e+00 6.8120639e-03 
-1.2150538e-04 0.0000000e+00 6.8120639e-03 
1.1191995e-03 0.0000000e+00 1.8058295e-03 
1.1191995e-03 0.0000000e+00 1.8058295e-03 
-1.1752218e-04 0.0000000e+00 6.6975616e-03 
-1.1752218e-04 0.0000000e+00 6.6975616e-03 
1.1279368e-03 0.0000000e+00 2.0455166e-03 
1.1279368e-03 0.0000000e+00 2.0455166e-03 
-1.1383392e-04 0.0000000e+00 6.5637817e-03 
-1.1383392e-04 0.0000000e+00 6.5637817e-03 
1.1371016e-03 0.0000000e+00 2.2991776e-03 
1.1371016e-03 0.0000000e+00 2.2991776e-03 
-1.1063253e-04 0.0000000e+00 6.4078896e-03 
-1.1063253e-04 0.0000000e+00 6.4078896e-03 
1.1465812e-03 0.0000000e+00 2.5644165e-03 
1.1465812e-03 0.0000000e+00 2.5644165e-03 
-1.0767180e-04 0.0000000e+00 6.2414382e-03 
-1.0767180e-04 0.0000000e+00 6.2414382e-03 
1.1563546e-03 0.0000000e+00 2.8412891e-03 
1.1563546e-03 0.0000000e+00 2.8412891e-03 
-1.0501164e-04 0.0000000e+00 6.0630428e-03 
-1.0501164e-04 0.0000000e+00 6.0630428e-03 
1.1665445e-03 0.0000000e+00 3.1376622e-03 
1.1665445e-03 0.0000000e+00 3.1376622e-03 
-1.0259724e-04 0.0000000e+00 5.8761667e-03 
-1.0259724e-04 0.0000000e+00 5.8761667e-03 
1.1770099e-03 0.0000000e+00 3.4496800e-03 
1.1770099e-03 0.0000000e+00 3.4496800e-03 
-1.0010843e-04 0.0000000e+00 5.6919262e-03 
-1.0010843e-04 0.0000000e+00 5.6919262e-03 
1.1876860e-03 0.0000000e+00 3.7765713e-03 
1.1876860e-03 0.0000000e+00 3.7765713e-03 