# vtk DataFile Version 4.0
vtk output
ASCII
DATASET UNSTRUCTURED_GRID
POINTS 824 float
-6.4148600e-05 1.0000000e-02 -4.4525366e-03
-1.0680180e-04 1.0000000e-02 -2.8088474e-03
3.4513260e-04 1.0000000e-02 -6.0450544e-03
1.3803532e-03 1.0000000e-02 -7.3230534e-03
6.5829700e-05 1.0000000e-02 -1.1736922e-03
2.7142144e-03 1.0000000e-02 -8.2851896e-03
5.0392030e-04 1.0000000e-02 6.5784910e-04
4.1780764e-03 1.0000000e-02 -9.0342357e-03
1.1628646e-03 1.0000000e-02 2.4220088e-03
5.7070961e-03 1.0000000e-02 -9.6390187e-03
2.0046218e-03 1.0000000e-02 4.1066196e-03
7.2731595e-03 1.0000000e-02 -1.0140047e-02
-6.4148600e-05 0.0000000e+00 -4.4525366e-03
-1.0680180e-04 0.0000000e+00 -2.8088474e-03
3.4513260e-04 0.0000000e+00 -6.0450544e-03
1.3803532e-03 0.0000000e+00 -7.3230534e-03
6.5829700e-05 0.0000000e+00 -1.1736922e-03
2.9952540e-03 1.0000000e-02 5.7082181e-03
8.8622628e-03 1.0000000e-02 -1.0562311e-02
2.7142144e-03 0.0000000e+00 -8.2851896e-03
5.0392030e-04 0.0000000e+00 6.5784910e-04
4.1780764e-03 0.0000000e+00 -9.0342357e-03
1.1628646e-03 0.0000000e+00 2.4220088e-03
1.0466628e-02 1.0000000e-02 -1.0922252e-02
4.1067238e-03 1.0000000e-02 7.2284501e-03
5.7070961e-03 0.0000000e+00 -9.6390187e-03
2.0046218e-03 0.0000000e+00 4.1066196e-03
7.2731595e-03 0.0000000e+00 -1.0140047e-02
1.2081579e-02 1.0000000e-02 -1.1231240e-02
5.3166988e-03 1.0000000e-02 8.6715129e-03
2.9952540e-03 0.0000000e+00 5.7082181e-03
8.8622628e-03 0.0000000e+00 -1.0562311e-02
1.3704120e-02 1.0000000e-02 -1.1497501e-02
1.0466628e-02 0.0000000e+00 -1.0922252e-02
4.1067238e-03 0.0000000e+00 7.2284501e-03
6.6076374e-03 1.0000000e-02 1.0042624e-02
1.5332244e-02 1.0000000e-02 -1.1727173e-02
1.2081579e-02 0.0000000e+00 -1.1231240e-02
5.3166988e-03 0.0000000e+00 8.6715129e-03
7.9658343e-03 1.0000000e-02 1.1347144e-02
1.3704120e-02 0.0000000e+00 -1.1497501e-02
1.6964543e-02 1.0000000e-02 -1.1925002e-02
6.6076374e-03 0.0000000e+00 1.0042624e-02
9.3804686e-03 1.0000000e-02 1.2590236e-02
1.5332244e-02 0.0000000e+00 -1.1727173e-02
1.8600004e-02 1.0000000e-02 -1.2094716e-02
7.9658343e-03 0.0000000e+00 1.1347144e-02
1.6964543e-02 0.0000000e+00 -1.1925002e-02
1.0843002e-02 1.0000000e-02 1.3776601e-02
2.0237876e-02 1.0000000e-02 -1.2239318e-02
9.3804686e-03 0.0000000e+00 1.2590236e-02
1.8600004e-02 0.0000000e+00 -1.2094716e-02
1.2346566e-02 1.0000000e-02 1.4910517e-02
2.1877591e-02 1.0000000e-02 -1.2361246e-02
1.0843002e-02 0.0000000e+00 1.3776601e-02
2.0237876e-02 0.0000000e+00 -1.2239318e-02
1.3885623e-02 1.0000000e-02 1.5995768e-02
2.3518711e-02 1.0000000e-02 -1.2462540e-02
1.2346566e-02 0.0000000e+00 1.4910517e-02
2.1877591e-02 0.0000000e+00 -1.2361246e-02
2.5160890e-02 1.0000000e-02 -1.2544903e-02
1.5455654e-02 1.0000000e-02 1.7035707e-02
1.3885623e-02 0.0000000e+00 1.5995768e-02
2.3518711e-02 0.0000000e+00 -1.2462540e-02
2.6803852e-02 1.0000000e-02 -1.2609772e-02
1.7052912e-02 1.0000000e-02 1.8033321e-02
2.5160890e-02 0.0000000e+00 -1.2544903e-02
1.5455654e-02 0.0000000e+00 1.7035707e-02
2.8447376e-02 1.0000000e-02 -1.2658389e-02
2.6803852e-02 0.0000000e+00 -1.2609772e-02
1.7052912e-02 0.0000000e+00 1.8033321e-02
1.8674284e-02 1.0000000e-02 1.8991246e-02
3.0091279e-02 1.0000000e-02 -1.2691814e-02
2.8447376e-02 0.0000000e+00 -1.2658389e-02
1.8674284e-02 0.0000000e+00 1.8991246e-02
2.0317149e-02 1.0000000e-02 1.9911822e-02
3.0091279e-02 0.0000000e+00 -1.2691814e-02
3.1735410e-02 1.0000000e-02 -1.2710971e-02
2.0317149e-02 0.0000000e+00 1.9911822e-02
2.1979295e-02 1.0000000e-02 2.0797113e-02
3.1735410e-02 0.0000000e+00 -1.2710971e-02
3.3379643e-02 1.0000000e-02 -1.2716676e-02
2.1979295e-02 0.0000000e+00 2.0797113e-02
2.3658832e-02 1.0000000e-02 2.1648949e-02
3.3379643e-02 0.0000000e+00 -1.2716676e-02
3.5023871e-02 1.0000000e-02 -1.2709629e-02
2.3658832e-02 0.0000000e+00 2.1648949e-02
2.5354100e-02 1.0000000e-02 2.2469029e-02
3.5023871e-02 0.0000000e+00 -1.2709629e-02
3.6668001e-02 1.0000000e-02 -1.2690457e-02
2.5354100e-02 0.0000000e+00 2.2469029e-02
2.7063712e-02 1.0000000e-02 2.3258772e-02
3.6668001e-02 0.0000000e+00 -1.2690457e-02
3.8312016e-02 1.0000000e-02 -1.2663038e-02
2.7063712e-02 0.0000000e+00 2.3258772e-02
3.8312016e-02 0.0000000e+00 -1.2663038e-02
2.8786417e-02 1.0000000e-02 2.4019532e-02
3.9956032e-02 1.0000000e-02 -1.2635752e-02
2.8786417e-02 0.0000000e+00 2.4019532e-02
3.9956032e-02 0.0000000e+00 -1.2635752e-02
3.0521135e-02 1.0000000e-02 2.4752486e-02
4.1600048e-02 1.0000000e-02 -1.2608467e-02
3.0521135e-02 0.0000000e+00 2.4752486e-02
4.1600048e-02 0.0000000e+00 -1.2608467e-02
3.2266919e-02 1.0000000e-02 2.5458676e-02
4.3299814e-02 1.0000000e-02 -1.2580255e-02
3.2266919e-02 0.0000000e+00 2.5458676e-02
4.3299814e-02 0.0000000e+00 -1.2580255e-02
3.4022902e-02 1.0000000e-02 2.6139111e-02
4.5339533e-02 1.0000000e-02 -1.2546402e-02
3.4022902e-02 0.0000000e+00 2.6139111e-02
4.5339533e-02 0.0000000e+00 -1.2546402e-02
3.5788340e-02 1.0000000e-02 2.6794623e-02
4.7787196e-02 1.0000000e-02 -1.2505778e-02
3.5788340e-02 0.0000000e+00 2.6794623e-02
3.7562554e-02 1.0000000e-02 2.7425996e-02
4.7787196e-02 0.0000000e+00 -1.2505778e-02
3.7562554e-02 0.0000000e+00 2.7425996e-02
3.9344928e-02 1.0000000e-02 2.8033950e-02
5.0379113e-02 1.0000000e-02 -1.2462760e-02
3.9344928e-02 0.0000000e+00 2.8033950e-02
5.0379113e-02 0.0000000e+00 -1.2462760e-02
4.1134916e-02 1.0000000e-02 2.8619109e-02
5.2971029e-02 1.0000000e-02 -1.2419741e-02
4.1134916e-02 0.0000000e+00 2.8619109e-02
5.2971029e-02 0.0000000e+00 -1.2419741e-02
4.2932026e-02 1.0000000e-02 2.9182016e-02
4.2932026e-02 0.0000000e+00 2.9182016e-02
5.5562946e-02 1.0000000e-02 -1.2376723e-02
4.5339682e-02 1.0000000e-02 2.9899231e-02
5.5562946e-02 0.0000000e+00 -1.2376723e-02
4.5339682e-02 0.0000000e+00 2.9899231e-02
5.8154863e-02 1.0000000e-02 -1.2333705e-02
4.7758221e-02 1.0000000e-02 3.0578844e-02
5.8154863e-02 0.0000000e+00 -1.2333705e-02
4.7758221e-02 0.0000000e+00 3.0578844e-02
6.0746779e-02 1.0000000e-02 -1.2290686e-02
5.0186760e-02 1.0000000e-02 3.1221807e-02
6.0746779e-02 0.0000000e+00 -1.2290686e-02
5.0186760e-02 0.0000000e+00 3.1221807e-02
6.3338696e-02 1.0000000e-02 -1.2247668e-02
5.2624513e-02 1.0000000e-02 3.1828903e-02
6.3338696e-02 0.0000000e+00 -1.2247668e-02
5.2624513e-02 0.0000000e+00 3.1828903e-02
5.5070762e-02 1.0000000e-02 3.2400804e-02
6.5930613e-02 1.0000000e-02 -1.2204650e-02
5.5070762e-02 0.0000000e+00 3.2400804e-02
6.5930613e-02 0.0000000e+00 -1.2204650e-02
5.7524847e-02 1.0000000e-02 3.2938082e-02
6.8522529e-02 1.0000000e-02 -1.2161631e-02
5.7524847e-02 0.0000000e+00 3.2938082e-02
6.8522529e-02 0.0000000e+00 -1.2161631e-02
5.9986169e-02 1.0000000e-02 3.3441170e-02
7.1114446e-02 1.0000000e-02 -1.2118613e-02
5.9986169e-02 0.0000000e+00 3.3441170e-02
7.1114446e-02 0.0000000e+00 -1.2118613e-02
6.2454163e-02 1.0000000e-02 3.3910436e-02
6.2454163e-02 0.0000000e+00 3.3910436e-02
7.3706362e-02 1.0000000e-02 -1.2075595e-02
7.3706362e-02 0.0000000e+00 -1.2075595e-02
6.4928303e-02 1.0000000e-02 3.4346139e-02
6.4928303e-02 0.0000000e+00 3.4346139e-02
7.6298279e-02 1.0000000e-02 -1.2032577e-02
7.6298279e-02 0.0000000e+00 -1.2032577e-02
6.7408092e-02 1.0000000e-02 3.4748446e-02
6.7408092e-02 0.0000000e+00 3.4748446e-02
7.8890196e-02 1.0000000e-02 -1.1989558e-02
7.8890196e-02 0.0000000e+00 -1.1989558e-02
6.9893057e-02 1.0000000e-02 3.5117436e-02
6.9893057e-02 0.0000000e+00 3.5117436e-02
8.1482112e-02 1.0000000e-02 -1.1946540e-02
8.1482112e-02 0.0000000e+00 -1.1946540e-02
7.2382742e-02 1.0000000e-02 3.5453098e-02
7.2382742e-02 0.0000000e+00 3.5453098e-02
8.4074029e-02 1.0000000e-02 -1.1903522e-02
7.4876707e-02 1.0000000e-02 3.5755332e-02
8.4074029e-02 0.0000000e+00 -1.1903522e-02
7.4876707e-02 0.0000000e+00 3.5755332e-02
8.6665946e-02 1.0000000e-02 -1.1860503e-02
7.7374516e-02 1.0000000e-02 3.6023948e-02
8.6665946e-02 0.0000000e+00 -1.1860503e-02
7.7374516e-02 0.0000000e+00 3.6023948e-02
8.9257862e-02 1.0000000e-02 -1.1817485e-02
7.9875738e-02 1.0000000e-02 3.6258665e-02
8.9257862e-02 0.0000000e+00 -1.1817485e-02
7.9875738e-02 0.0000000e+00 3.6258665e-02
8.2379940e-02 1.0000000e-02 3.6459105e-02
9.1849779e-02 1.0000000e-02 -1.1774467e-02
8.2379940e-02 0.0000000e+00 3.6459105e-02
9.1849779e-02 0.0000000e+00 -1.1774467e-02
8.4886681e-02 1.0000000e-02 3.6624786e-02
9.4441696e-02 1.0000000e-02 -1.1731448e-02
8.4886681e-02 0.0000000e+00 3.6624786e-02
9.4441696e-02 0.0000000e+00 -1.1731448e-02
8.7395510e-02 1.0000000e-02 3.6755108e-02
8.7395510e-02 0.0000000e+00 3.6755108e-02
9.7033612e-02 1.0000000e-02 -1.1688430e-02
9.7033612e-02 0.0000000e+00 -1.1688430e-02
8.9905951e-02 1.0000000e-02 3.6849401e-02
8.9905951e-02 0.0000000e+00 3.6849401e-02
9.9625529e-02 1.0000000e-02 -1.1645412e-02
9.9625529e-02 0.0000000e+00 -1.1645412e-02
9.2417505e-02 1.0000000e-02 3.6906832e-02
9.2417505e-02 0.0000000e+00 3.6906832e-02
1.0221745e-01 1.0000000e-02 -1.1602393e-02
1.0221745e-01 0.0000000e+00 -1.1602393e-02
9.4929640e-02 1.0000000e-02 3.6926425e-02
9.4929640e-02 0.0000000e+00 3.6926425e-02
1.0480936e-01 1.0000000e-02 -1.1559375e-02
1.0480936e-01 0.0000000e+00 -1.1559375e-02
9.7441776e-02 1.0000000e-02 3.6907077e-02
9.7441776e-02 0.0000000e+00 3.6907077e-02
1.0740128e-01 1.0000000e-02 -1.1516357e-02
1.0740128e-01 0.0000000e+00 -1.1516357e-02
9.9953281e-02 1.0000000e-02 3.6847529e-02
9.9953281e-02 0.0000000e+00 3.6847529e-02
1.0999320e-01 1.0000000e-02 -1.1473339e-02
1.0246345e-01 1.0000000e-02 3.6746314e-02
1.0999320e-01 0.0000000e+00 -1.1473339e-02
1.0246345e-01 0.0000000e+00 3.6746314e-02
1.0497150e-01 1.0000000e-02 3.6601738e-02
1.1258511e-01 1.0000000e-02 -1.1430320e-02
1.0497150e-01 0.0000000e+00 3.6601738e-02
1.1258511e-01 0.0000000e+00 -1.1430320e-02
1.0747666e-01 1.0000000e-02 3.6413638e-02
1.1517703e-01 1.0000000e-02 -1.1387302e-02
1.0747666e-01 0.0000000e+00 3.6413638e-02
1.1517703e-01 0.0000000e+00 -1.1387302e-02
1.0998086e-01 1.0000000e-02 3.6213227e-02
1.0998086e-01 0.0000000e+00 3.6213227e-02
1.1776895e-01 1.0000000e-02 -1.1344284e-02
1.1776895e-01 0.0000000e+00 -1.1344284e-02
1.1248507e-01 1.0000000e-02 3.6012815e-02
[...]
POINT_DATA 824
FIELD FieldData 2
DISPLACEMENT 3 824  float
0.0000000e+00 0.0000000e+00 0.0000000e+00
0.0000000e+00 0.0000000e+00 0.0000000e+00
0.0000000e+00 0.0000000e+00 0.0000000e+00
0.0000000e+00 0.0000000e+00 0.0000000e+00
0.0000000e+00 0.0000000e+00 0.0000000e+00
0.0000000e+00 0.0000000e+00 0.0000000e+00
0.0000000e+00 0.0000000e+00 0.0000000e+00
0.0000000e+00 0.0000000e+00 0.0000000e+00
0.0000000e+00 0.0000000e+00 0.0000000e+00
0.0000000e+00 0.0000000e+00 0.0000000e+00
0.0000000e+00 0.0000000e+00 0.0000000e+00
0.0000000e+00 0.0000000e+00 0.0000000e+00
0.0000000e+00 0.0000000e+00 0.0000000e+00
0.0000000e+00 0.0000000e+00 0.0000000e+00
0.0000000e+00 0.0000000e+00 0.0000000e+00
0.0000000e+00 0.0000000e+00 0.0000000e+00
0.0000000e+00 0.0000000e+00 0.0000000e+00
0.0000000e+00 0.0000000e+00 0.0000000e+00
0.0000000e+00 0.0000000e+00 0.0000000e+00
0.0000000e+00 0.0000000e+00 0.0000000e+00
0.0000000e+00 0.0000000e+00 0.0000000e+00
0.0000000e+00 0.0000000e+00 0.0000000e+00
0.0000000e+00 0.0000000e+00 0.0000000e+00
0.0000000e+00 0.0000000e+00 0.0000000e+00
0.0000000e+00 0.0000000e+00 0.0000000e+00
0.0000000e+00 0.0000000e+00 0.0000000e+00
0.0000000e+00 0.0000000e+00 0.0000000e+00
0.0000000e+00 0.0000000e+00 0.0000000e+00
0.0000000e+00 0.0000000e+00 0.0000000e+00
0.0000000e+00 0.0000000e+00 0.0000000e+00
0.0000000e+00 0.0000000e+00 0.0000000e+00
0.0000000e+00 0.0000000e+00 0.0000000e+00
0.0000000e+00 0.0000000e+00 0.0000000e+00
0.0000000e+00 0.0000000e+00 0.0000000e+00
0.0000000e+00 0.0000000e+00 0.0000000e+00
0.0000000e+00 0.0000000e+00 0.0000000e+00
0.0000000e+00 0.0000000e+00 0.0000000e+00
0.0000000e+00 0.0000000e+00 0.0000000e+00
0.0000000e+00 0.0000000e+00 0.0000000e+00
0.0000000e+00 0.0000000e+00 0.0000000e+00
0.0000000e+00 0.0000000e+00 0.0000000e+00
0.0000000e+00 0.0000000e+00 0.0000000e+00
0.0000000e+00 0.0000000e+00 0.0000000e+00
0.0000000e+00 0.0000000e+00 0.0000000e+00
0.0000000e+00 0.0000000e+00 0.0000000e+00
0.0000000e+00 0.0000000e+00 0.0000000e+00
0.0000000e+00 0.0000000e+00 0.0000000e+00
0.0000000e+00 0.0000000e+00 0.0000000e+00
0.0000000e+00 0.0000000e+00 0.0000000e+00
0.0000000e+00 0.0000000e+00 0.0000000e+00
0.0000000e+00 0.0000000e+00 0.0000000e+00
0.0000000e+00 0.0000000e+00 0.0000000e+00
0.0000000e+00 0.0000000e+00 0.0000000e+00
0.0000000e+00 0.0000000e+00 0.0000000e+00
0.0000000e+00 0.0000000e+00 0.0000000e+00
0.0000000e+00 0.0000000e+00 0.0000000e+00
0.0000000e+00 0.0000000e+00 0.0000000e+00
0.0000000e+00 0.0000000e+00 0.0000000e+00
0.0000000e+00 0.0000000e+00 0.0000000e+00
0.0000000e+00 0.0000000e+00 0.0000000e+00
0.0000000e+00 0.0000000e+00 0.0000000e+00
0.0000000e+00 0.0000000e+00 0.0000000e+00
0.0000000e+00 0.0000000e+00 0.0000000e+00
0.0000000e+00 0.0000000e+00 0.0000000e+00
0.0000000e+00 0.0000000e+00 0.0000000e+00
0.0000000e+00 0.0000000e+00 0.0000000e+00
0.0000000e+00 0.0000000e+00 0.0000000e+00
0.0000000e+00 0.0000000e+00 0.0000000e+00
0.0000000e+00 0.0000000e+00 0.0000000e+00
0.0000000e+00 0.0000000e+00 0.0000000e+00
0.0000000e+00 0.0000000e+00 0.0000000e+00
0.0000000e+00 0.0000000e+00 0.0000000e+00
0.0000000e+00 0.0000000e+00 0.0000000e+00
0.0000000e+00 0.0000000e+00 0.0000000e+00
0.0000000e+00 0.0000000e+00 0.0000000e+00
0.0000000e+00 0.0000000e+00 0.0000000e+00
0.0000000e+00 0.0000000e+00 0.0000000e+00
0.0000000e+00 0.0000000e+00 0.0000000e+00
0.0000000e+00 0.0000000e+00 0.0000000e+00
0.0000000e+00 0.0000000e+00 0.0000000e+00
0.0000000e+00 0.0000000e+00 0.0000000e+00
0.0000000e+00 0.0000000e+00 0.0000000e+00
0.0000000e+00 0.0000000e+00 0.0000000e+00
0.0000000e+00 0.0000000e+00 0.0000000e+00
0.0000000e+00 0.0000000e+00 0.0000000e+00
0.0000000e+00 0.0000000e+00 0.0000000e+00
0.0000000e+00 0.0000000e+00 0.0000000e+00
0.0000000e+00 0.0000000e+00 0.0000000e+00
0.0000000e+00 0.0000000e+00 0.0000000e+00
0.0000000e+00 0.0000000e+00 0.0000000e+00
0.0000000e+00 0.0000000e+00 0.0000000e+00
0.0000000e+00 0.0000000e+00 0.0000000e+00
0.0000000e+00 0.0000000e+00 0.0000000e+00
0.0000000e+00 0.0000000e+00 0.0000000e+00
0.0000000e+00 0.0000000e+00 0.0000000e+00
0.0000000e+00 0.0000000e+00 0.0000000e+00
0.0000000e+00 0.0000000e+00 0.0000000e+00
-2.6379368e-05 0.0000000e+00 -4.0445740e-04
0.0000000e+00 0.0000000e+00 0.0000000e+00
-2.6379368e-05 0.0000000e+00 -4.0445740e-04
0.0000000e+00 0.0000000e+00 0.0000000e+00
-5.2049925e-05 0.0000000e+00 -8.0586084e-04
0.0000000e+00 0.0000000e+00 0.0000000e+00
-5.2049925e-05 0.0000000e+00 -8.0586084e-04
0.0000000e+00 0.0000000e+00 0.0000000e+00
-7.7851792e-05 0.0000000e+00 -1.2176666e-03
0.0000000e+00 0.0000000e+00 0.0000000e+00
-7.7851792e-05 0.0000000e+00 -1.2176666e-03
0.0000000e+00 0.0000000e+00 0.0000000e+00
-1.0783087e-04 0.0000000e+00 -1.7075202e-03
0.0000000e+00 0.0000000e+00 0.0000000e+00
-1.0783087e-04 0.0000000e+00 -1.7075202e-03
0.0000000e+00 0.0000000e+00 0.0000000e+00
-1.4240464e-04 0.0000000e+00 -2.2891328e-03
0.0000000e+00 0.0000000e+00 0.0000000e+00
0.0000000e+00 0.0000000e+00 0.0000000e+00
-1.4240464e-04 0.0000000e+00 -2.2891328e-03
0.0000000e+00 0.0000000e+00 0.0000000e+00
7.0258758e-05 0.0000000e+00 -1.8924304e-04
-1.7736993e-04 0.0000000e+00 -2.8976304e-03
7.0258758e-05 0.0000000e+00 -1.8924304e-04
-1.7736993e-04 0.0000000e+00 -2.8976304e-03
1.3382222e-04 0.0000000e+00 -3.5977324e-04
-2.1066426e-04 0.0000000e+00 -3.4985198e-03
1.3382222e-04 0.0000000e+00 -3.5977324e-04
-2.1066426e-04 0.0000000e+00 -3.4985198e-03
1.9117276e-04 0.0000000e+00 -5.1213575e-04
1.9117276e-04 0.0000000e+00 -5.1213575e-04
-2.4231034e-04 0.0000000e+00 -4.0917947e-03
2.5877965e-04 0.0000000e+00 -6.8804342e-04
-2.4231034e-04 0.0000000e+00 -4.0917947e-03
2.5877965e-04 0.0000000e+00 -6.8804342e-04
-2.7233081e-04 0.0000000e+00 -4.6774508e-03
3.1708366e-04 0.0000000e+00 -8.3362570e-04
-2.7233081e-04 0.0000000e+00 -4.6774508e-03
3.1708366e-04 0.0000000e+00 -8.3362570e-04
-3.0074830e-04 0.0000000e+00 -5.2554841e-03
3.6694607e-04 0.0000000e+00 -9.4983927e-04
-3.0074830e-04 0.0000000e+00 -5.2554841e-03
3.6694607e-04 0.0000000e+00 -9.4983927e-04
-3.2758557e-04 0.0000000e+00 -5.8258885e-03
4.0913224e-04 0.0000000e+00 -1.0374715e-03
-3.2758557e-04 0.0000000e+00 -5.8258885e-03
4.0913224e-04 0.0000000e+00 -1.0374715e-03
4.4433826e-04 0.0000000e+00 -1.0971991e-03
-3.5286528e-04 0.0000000e+00 -6.3886599e-03
4.4433826e-04 0.0000000e+00 -1.0971991e-03
-3.5286528e-04 0.0000000e+00 -6.3886599e-03
4.7320194e-04 0.0000000e+00 -1.1295984e-03
-3.7661013e-04 0.0000000e+00 -6.9437946e-03
4.7320194e-04 0.0000000e+00 -1.1295984e-03
-3.7661013e-04 0.0000000e+00 -6.9437946e-03
4.9630219e-04 0.0000000e+00 -1.1351067e-03
-3.9884291e-04 0.0000000e+00 -7.4912864e-03
4.9630219e-04 0.0000000e+00 -1.1351067e-03
-3.9884291e-04 0.0000000e+00 -7.4912864e-03
5.1418229e-04 0.0000000e+00 -1.1140963e-03
5.1418229e-04 0.0000000e+00 -1.1140963e-03
-4.1958631e-04 0.0000000e+00 -8.0311316e-03
-4.1958631e-04 0.0000000e+00 -8.0311316e-03
5.2734667e-04 0.0000000e+00 -1.0668304e-03
5.2734667e-04 0.0000000e+00 -1.0668304e-03
-4.3886311e-04 0.0000000e+00 -8.5633260e-03
-4.3886311e-04 0.0000000e+00 -8.5633260e-03
5.3627039e-04 0.0000000e+00 -9.9348030e-04
5.3627039e-04 0.0000000e+00 -9.9348030e-04
-4.5669606e-04 0.0000000e+00 -9.0878662e-03
-4.5669606e-04 0.0000000e+00 -9.0878662e-03
5.4140529e-04 0.0000000e+00 -8.9412903e-04
5.4140529e-04 0.0000000e+00 -8.9412903e-04
-4.7310796e-04 0.0000000e+00 -9.6047457e-03
-4.7310796e-04 0.0000000e+00 -9.6047457e-03
5.4318496e-04 0.0000000e+00 -7.6876980e-04
5.4318496e-04 0.0000000e+00 -7.6876980e-04
-4.8812160e-04 0.0000000e+00 -1.0113962e-02
5.4203001e-04 0.0000000e+00 -6.1730621e-04
-4.8812160e-04 0.0000000e+00 -1.0113962e-02
5.4203001e-04 0.0000000e+00 -6.1730621e-04
-5.0175977e-04 0.0000000e+00 -1.0615511e-02
5.3835314e-04 0.0000000e+00 -4.3955249e-04
-5.0175977e-04 0.0000000e+00 -1.0615511e-02
5.3835314e-04 0.0000000e+00 -4.3955249e-04
-5.1404530e-04 0.0000000e+00 -1.1109387e-02
5.3256416e-04 0.0000000e+00 -2.3523143e-04
-5.1404530e-04 0.0000000e+00 -1.1109387e-02
5.3256416e-04 0.0000000e+00 -2.3523143e-04
5.2507471e-04 0.0000000e+00 -3.9688042e-06
-5.2500103e-04 0.0000000e+00 -1.1595587e-02
5.2507471e-04 0.0000000e+00 -3.9688042e-06
-5.2500103e-04 0.0000000e+00 -1.1595587e-02
5.1630354e-04 0.0000000e+00 2.5471355e-04
-5.3464977e-04 0.0000000e+00 -1.2074109e-02
5.1630354e-04 0.0000000e+00 2.5471355e-04
-5.3464977e-04 0.0000000e+00 -1.2074109e-02
5.0668194e-04 0.0000000e+00 5.4141229e-04
5.0668194e-04 0.0000000e+00 5.4141229e-04
-5.4301440e-04 0.0000000e+00 -1.2544946e-02
-5.4301440e-04 0.0000000e+00 -1.2544946e-02
4.9666278e-04 0.0000000e+00 8.5679352e-04
4.9666278e-04 0.0000000e+00 8.5679352e-04
-5.5011778e-04 0.0000000e+00 -1.3008095e-02
-5.5011778e-04 0.0000000e+00 -1.3008095e-02
4.8672312e-04 0.0000000e+00 1.2016867e-03
4.8672312e-04 0.0000000e+00 1.2016867e-03
-5.5598277e-04 0.0000000e+00 -1.3463555e-02
-5.5598277e-04 0.0000000e+00 -1.3463555e-02
4.7737489e-04 0.0000000e+00 1.5770645e-03
4.7737489e-04 0.0000000e+00 1.5770645e-03
-5.6063226e-04 0.0000000e+00 -1.3911318e-02
-5.6063226e-04 0.0000000e+00 -1.3911318e-02
4.6917471e-04 0.0000000e+00 1.9840263e-03
4.6917471e-04 0.0000000e+00 1.9840263e-03
-5.6408917e-04 0.0000000e+00 -1.4351384e-02
-5.6408917e-04 0.0000000e+00 -1.4351384e-02
4.6273420e-04 0.0000000e+00 2.4238279e-03
4.6273420e-04 0.0000000e+00 2.4238279e-03
-5.6637639e-04 0.0000000e+00 -1.4783747e-02
4.5873431e-04 0.0000000e+00 2.8979326e-03
-5.6637639e-04 0.0000000e+00 -1.4783747e-02
4.5873431e-04 0.0000000e+00 2.8979326e-03
4.5794326e-04 0.0000000e+00 3.4080323e-03
-5.6751681e-04 0.0000000e+00 -1.5208405e-02
4.5794326e-04 0.0000000e+00 3.4080323e-03
-5.6751681e-04 0.0000000e+00 -1.5208405e-02
4.6110388e-04 0.0000000e+00 3.9542858e-03
-5.6753340e-04 0.0000000e+00 -1.5625355e-02
4.6110388e-04 0.0000000e+00 3.9542858e-03
-5.6753340e-04 0.0000000e+00 -1.5625355e-02
4.6626107e-04 0.0000000e+00 4.5054765e-03
4.6626107e-04 0.0000000e+00 4.5054765e-03
-5.6644907e-04 0.0000000e+00 -1.6034593e-02
-5.6644907e-04 0.0000000e+00 -1.6034593e-02
4.7243836e-04 0.0000000e+00 5.0492936e-03
4.7243836e-04 0.0000000e+00 5.0492936e-03
-5.6428677e-04 0.0000000e+00 -1.6436115e-02
-5.6428677e-04 0.0000000e+00 -1.6436115e-02
4.7961400e-04 0.0000000e+00 5.5857292e-03
4.7961400e-04 0.0000000e+00 5.5857292e-03
-5.6106947e-04 0.0000000e+00 -1.6829919e-02
-5.6106947e-04 0.0000000e+00 -1.6829919e-02
4.8776639e-04 0.0000000e+00 6.1147852e-03
4.8776639e-04 0.0000000e+00 6.1147852e-03
-5.5682013e-04 0.0000000e+00 -1.7216001e-02
-5.5682013e-04 0.0000000e+00 -1.7216001e-02
4.9687371e-04 0.0000000e+00 6.6364541e-03
4.9687371e-04 0.0000000e+00 6.6364541e-03
-5.5156172e-04 0.0000000e+00 -1.7594359e-02
-5.5156172e-04 0.0000000e+00 -1.7594359e-02
5.0691437e-04 0.0000000e+00 7.1507378e-03
5.0691437e-04 0.0000000e+00 7.1507378e-03
-5.4531722e-04 0.0000000e+00 -1.7964989e-02
5.1786655e-04 0.0000000e+00 7.6576289e-03
-5.4531722e-04 0.0000000e+00 -1.7964989e-02
5.1786655e-04 0.0000000e+00 7.6576289e-03
5.2970865e-04 0.0000000e+00 8.1571281e-03
-5.3810963e-04 0.0000000e+00 -1.8327889e-02
5.2970865e-04 0.0000000e+00 8.1571281e-03
-5.3810963e-04 0.0000000e+00 -1.8327889e-02
5.4241877e-04 0.0000000e+00 8.6492320e-03
-5.2996198e-04 0.0000000e+00 -1.8683054e-02
5.4241877e-04 0.0000000e+00 8.6492320e-03
-5.2996198e-04 0.0000000e+00 -1.8683054e-02
5.5597527e-04 0.0000000e+00 9.1339367e-03
5.5597527e-04 0.0000000e+00 9.1339367e-03
-5.2089720e-04 0.0000000e+00 -1.9030486e-02
-5.2089720e-04 0.0000000e+00 -1.9030486e-02
5.7035647e-04 0.0000000e+00 9.6112430e-03
5.7035647e-04 0.0000000e+00 9.6112430e-03
-5.1093837e-04 0.0000000e+00 -1.9370177e-02
-5.1093837e-04 0.0000000e+00 -1.9370177e-02
5.8554048e-04 0.0000000e+00 1.0081144e-02
5.8554048e-04 0.0000000e+00 1.0081144e-02
-5.0010854e-04 0.0000000e+00 -1.9702127e-02
-5.0010854e-04 0.0000000e+00 -1.9702127e-02
6.0150567e-04 0.0000000e+00 1.0543643e-02
6.0150567e-04 0.0000000e+00 1.0543643e-02
-4.8843064e-04 0.0000000e+00 -2.0026334e-02
-4.8843064e-04 0.0000000e+00 -2.0026334e-02
6.1823014e-04 0.0000000e+00 1.0998731e-02
6.1823014e-04 0.0000000e+00 1.0998731e-02
-4.7592780e-04 0.0000000e+00 -2.0342794e-02
-4.7592780e-04 0.0000000e+00 -2.0342794e-02
6.3569226e-04 0.0000000e+00 1.1446411e-02
6.3569226e-04 0.0000000e+00 1.1446411e-02
-4.6262308e-04 0.0000000e+00 -2.0651504e-02
-4.6262308e-04 0.0000000e+00 -2.0651504e-02
6.5387010e-04 0.0000000e+00 1.1886680e-02
6.5387010e-04 0.0000000e+00 1.1886680e-02
-4.4853944e-04 0.0000000e+00 -2.0952466e-02
-4.4853944e-04 0.0000000e+00 -2.0952466e-02
6.7274194e-04 0.0000000e+00 1.2319533e-02
6.7274194e-04 0.0000000e+00 1.2319533e-02
-4.3370001e-04 0.0000000e+00 -2.1245672e-02
6.9228609e-04 0.0000000e+00 1.2744973e-02
-4.3370001e-04 0.0000000e+00 -2.1245672e-02
6.9228609e-04 0.0000000e+00 1.2744973e-02
-4.1812790e-04 0.0000000e+00 -2.1531122e-02
7.1248057e-04 0.0000000e+00 1.3162992e-02
-4.1812790e-04 0.0000000e+00 -2.1531122e-02
7.1248057e-04 0.0000000e+00 1.3162992e-02
7.3330377e-04 0.0000000e+00 1.3573594e-02
-4.0184608e-04 0.0000000e+00 -2.1808815e-02
7.3330377e-04 0.0000000e+00 1.3573594e-02
-4.0184608e-04 0.0000000e+00 -2.1808815e-02
7.5473367e-04 0.0000000e+00 1.3976773e-02
7.5473367e-04 0.0000000e+00 1.3976773e-02
-3.8487766e-04 0.0000000e+00 -2.2078750e-02
-3.8487766e-04 0.0000000e+00 -2.2078750e-02
7.7674866e-04 0.0000000e+00 1.4372529e-02
7.7674866e-04 0.0000000e+00 1.4372529e-02
-3.6724583e-04 0.0000000e+00 -2.2340920e-02
-3.6724583e-04 0.0000000e+00 -2.2340920e-02
7.9932676e-04 0.0000000e+00 1.4760860e-02
7.9932676e-04 0.0000000e+00 1.4760860e-02
-3.4897355e-04 0.0000000e+00 -2.2595328e-02
-3.4897355e-04 0.0000000e+00 -2.2595328e-02
8.2244628e-04 0.0000000e+00 1.5141765e-02
8.2244628e-04 0.0000000e+00 1.5141765e-02
-3.3008394e-04 0.0000000e+00 -2.2841971e-02
-3.3008394e-04 0.0000000e+00 -2.2841971e-02
8.4608527e-04 0.0000000e+00 1.5515241e-02
8.4608527e-04 0.0000000e+00 1.5515241e-02
-3.1060024e-04 0.0000000e+00 -2.3080844e-02
-3.1060024e-04 0.0000000e+00 -2.3080844e-02
8.7022193e-04 0.0000000e+00 1.5881287e-02
8.7022193e-04 0.0000000e+00 1.5881287e-02
-2.9054538e-04 0.0000000e+00 -2.3311949e-02
-2.9054538e-04 0.0000000e+00 -2.3311949e-02
8.9483455e-04 0.0000000e+00 1.6239904e-02
8.9483455e-04 0.0000000e+00 1.6239904e-02
-2.6994253e-04 0.0000000e+00 -2.3535285e-02
-2.6994253e-04 0.0000000e+00 -2.3535285e-02
9.1990108e-04 0.0000000e+00 1.6591086e-02
9.1990108e-04 0.0000000e+00 1.6591086e-02
-2.4881492e-04 0.0000000e+00 -2.3750846e-02
-2.4881492e-04 0.0000000e+00 -2.3750846e-02
9.4539987e-04 0.0000000e+00 1.6934836e-02
9.4539987e-04 0.0000000e+00 1.6934836e-02
-2.2718552e-04 0.0000000e+00 -2.3958633e-02
-2.2718552e-04 0.0000000e+00 -2.3958633e-02
9.7130893e-04 0.0000000e+00 1.7271150e-02
9.7130893e-04 0.0000000e+00 1.7271150e-02
-2.0507749e-04 0.0000000e+00 -2.4158647e-02
-2.0507749e-04 0.0000000e+00 -2.4158647e-02
9.9760651e-04 0.0000000e+00 1.7600029e-02
9.9760651e-04 0.0000000e+00 1.7600029e-02
-1.8251411e-04 0.0000000e+00 -2.4350882e-02
-1.8251411e-04 0.0000000e+00 -2.4350882e-02
1.0242707e-03 0.0000000e+00 1.7921470e-02
1.0242707e-03 0.0000000e+00 1.7921470e-02
-1.5951831e-04 0.0000000e+00 -2.4535339e-02
1.0512796e-03 0.0000000e+00 1.8235473e-02
-1.5951831e-04 0.0000000e+00 -2.4535339e-02
1.0512796e-03 0.0000000e+00 1.8235473e-02
1.0786114e-03 0.0000000e+00 1.8542036e-02
-1.3611333e-04 0.0000000e+00 -2.4712017e-02
1.0786114e-03 0.0000000e+00 1.8542036e-02
-1.3611333e-04 0.0000000e+00 -2.4712017e-02
1.1062442e-03 0.0000000e+00 1.8841159e-02
-1.1232238e-04 0.0000000e+00 -2.4880915e-02
1.1062442e-03 0.0000000e+00 1.8841159e-02
-1.1232238e-04 0.0000000e+00 -2.4880915e-02
1.1341563e-03 0.0000000e+00 1.9132842e-02
1.1341563e-03 0.0000000e+00 1.9132842e-02
-8.8168455e-05 0.0000000e+00 -2.5042030e-02
-8.8168455e-05 0.0000000e+00 -2.5042030e-02
1.1623256e-03 0.0000000e+00 1.9417082e-02
1.1623256e-03 0.0000000e+00 1.9417082e-02
-6.3674876e-05 0.0000000e+00 -2.5195363e-02
-6.3674876e-05 0.0000000e+00 -2.5195363e-02
1.1907304e-03 0.0000000e+00 1.9693880e-02
1.1907304e-03 0.0000000e+00 1.9693880e-02
-3.8864616e-05 0.0000000e+00 -2.5340913e-02
-3.8864616e-05 0.0000000e+00 -2.5340913e-02
1.2193487e-03 0.0000000e+00 1.9963234e-02
1.2193487e-03 0.0000000e+00 1.9963234e-02
-1.3760921e-05 0.0000000e+00 -2.5478678e-02
-1.3760921e-05 0.0000000e+00 -2.5478678e-02
1.2481587e-03 0.0000000e+00 2.0225146e-02
1.2481587e-03 0.0000000e+00 2.0225146e-02
1.1612955e-05 0.0000000e+00 -2.5608657e-02
1.1612955e-05 0.0000000e+00 -2.5608657e-02
1.2771384e-03 0.0000000e+00 2.0479612e-02
1.2771384e-03 0.0000000e+00 2.0479612e-02
3.7234038e-05 0.0000000e+00 -2.5730850e-02
3.7234038e-05 0.0000000e+00 -2.5730850e-02
1.3062661e-03 0.0000000e+00 2.0726633e-02
1.3062661e-03 0.0000000e+00 2.0726633e-02
6.3079071e-05 0.0000000e+00 -2.5845256e-02
6.3079071e-05 0.0000000e+00 -2.5845256e-02
1.3355199e-03 0.0000000e+00 2.0966210e-02
1.3355199e-03 0.0000000e+00 2.0966210e-02
8.9124791e-05 0.0000000e+00 -2.5951875e-02
8.9124791e-05 0.0000000e+00 -2.5951875e-02
1.3648777e-03 0.0000000e+00 2.1198340e-02
1.3648777e-03 0.0000000e+00 2.1198340e-02
1.1534822e-04 0.0000000e+00 -2.6050705e-02
1.1534822e-04 0.0000000e+00 -2.6050705e-02
1.3943179e-03 0.0000000e+00 2.1423026e-02
1.3943179e-03 0.0000000e+00 2.1423026e-02
1.4172611e-04 0.0000000e+00 -2.6141747e-02
1.4172611e-04 0.0000000e+00 -2.6141747e-02
1.4238185e-03 0.0000000e+00 2.1640264e-02
1.4238185e-03 0.0000000e+00 2.1640264e-02
1.6823517e-04 0.0000000e+00 -2.6225000e-02
1.6823517e-04 0.0000000e+00 -2.6225000e-02
1.4533576e-03 0.0000000e+00 2.1850058e-02
1.4533576e-03 0.0000000e+00 2.1850058e-02
1.9485243e-04 0.0000000e+00 -2.6300464e-02
1.9485243e-04 0.0000000e+00 -2.6300464e-02
1.4829133e-03 0.0000000e+00 2.2052404e-02
1.4829133e-03 0.0000000e+00 2.2052404e-02
2.2155463e-04 0.0000000e+00 -2.6368138e-02
2.2155463e-04 0.0000000e+00 -2.6368138e-02
1.5123202e-03 0.0000000e+00 2.2246374e-02
1.5123202e-03 0.0000000e+00 2.2246374e-02
2.4839839e-04 0.0000000e+00 -2.6428189e-02
2.4839839e-04 0.0000000e+00 -2.6428189e-02
1.5475716e-03 0.0000000e+00 2.2469406e-02
1.5475716e-03 0.0000000e+00 2.2469406e-02
2.8066039e-04 0.0000000e+00 -2.6489906e-02
2.8066039e-04 0.0000000e+00 -2.6489906e-02
1.5897705e-03 0.0000000e+00 2.2723028e-02
1.5897705e-03 0.0000000e+00 2.2723028e-02
3.1939231e-04 0.0000000e+00 -2.6549070e-02
3.1939231e-04 0.0000000e+00 -2.6549070e-02
1.6401756e-03 0.0000000e+00 2.3007191e-02
1.6401756e-03 0.0000000e+00 2.3007191e-02
3.6533170e-04 0.0000000e+00 -2.6598232e-02
3.6533170e-04 0.0000000e+00 -2.6598232e-02
1.6928966e-03 0.0000000e+00 2.3282802e-02
1.6928966e-03 0.0000000e+00 2.3282802e-02
4.1108686e-04 0.0000000e+00 -2.6624468e-02
4.1108686e-04 0.0000000e+00 -2.6624468e-02
1.7450865e-03 0.0000000e+00 2.3533970e-02
1.7450865e-03 0.0000000e+00 2.3533970e-02
4.5654079e-04 0.0000000e+00 -2.6627778e-02
4.5654079e-04 0.0000000e+00 -2.6627778e-02
1.7966149e-03 0.0000000e+00 2.3760698e-02
1.7966149e-03 0.0000000e+00 2.3760698e-02
5.0157651e-04 0.0000000e+00 -2.6608166e-02
5.0157651e-04 0.0000000e+00 -2.6608166e-02
1.8473519e-03 0.0000000e+00 2.3962990e-02
1.8473519e-03 0.0000000e+00 2.3962990e-02
5.4607712e-04 0.0000000e+00 -2.6565633e-02
5.4607712e-04 0.0000000e+00 -2.6565633e-02
1.8971672e-03 0.0000000e+00 2.4140851e-02
1.8971672e-03 0.0000000e+00 2.4140851e-02
5.8992547e-04 0.0000000e+00 -2.6500183e-02
5.8992547e-04 0.0000000e+00 -2.6500183e-02
1.9459308e-03 0.0000000e+00 2.4294286e-02
1.9459308e-03 0.0000000e+00 2.4294286e-02
6.3300471e-04 0.0000000e+00 -2.6411819e-02
6.3300471e-04 0.0000000e+00 -2.6411819e-02
1.9935126e-03 0.0000000e+00 2.4423300e-02
1.9935126e-03 0.0000000e+00 2.4423300e-02
6.7519791e-04 0.0000000e+00 -2.6300545e-02
6.7519791e-04 0.0000000e+00 -2.6300545e-02
2.0397826e-03 0.0000000e+00 2.4527901e-02
2.0397826e-03 0.0000000e+00 2.4527901e-02
7.1638817e-04 0.0000000e+00 -2.6166366e-02
7.1638817e-04 0.0000000e+00 -2.6166366e-02
2.0846108e-03 0.0000000e+00 2.4608095e-02
2.0846108e-03 0.0000000e+00 2.4608095e-02
7.5645869e-04 0.0000000e+00 -2.6009288e-02
7.5645869e-04 0.0000000e+00 -2.6009288e-02