TITLE     = "interfaceData.dat"
VARIABLES = "x" "y" "z" "cp"
ZONE T="MEMBRANE" 
 N=388, E=194, F=FEBLOCK ET=Quadrilateral

 3.511698E-02 3.386337E-02 3.511698E-02 3.386337E-02 3.260976E-02
 3.260976E-02 3.135616E-02 3.135616E-02 3.010255E-02 3.010255E-02
 2.884894E-02 2.884894E-02 2.759533E-02 2.759533E-02 2.634173E-02
 2.634173E-02 2.508812E-02 2.508812E-02 2.383451E-02 2.383451E-02
 2.258091E-02 2.258091E-02 2.132730E-02 2.132730E-02 2.007369E-02
 2.007369E-02 1.882008E-02 1.882008E-02 1.756632E-02 1.756632E-02
 1.631231E-02 1.631231E-02 1.505814E-02 1.505814E-02 1.380405E-02
 1.380405E-02 1.255033E-02 1.255033E-02 1.129736E-02 1.129736E-02
 1.004570E-02 1.004570E-02 8.796080E-03 8.796080E-03 7.549548E-03
 7.549548E-03 6.308264E-03 6.308264E-03 5.075185E-03 5.075185E-03
 3.854531E-03 3.854531E-03 2.659059E-03 2.659059E-03 1.514734E-03
 1.514734E-03 5.088399E-04 5.088399E-04 -1.820587E-05 -1.820590E-05
 3.711608E-02 3.711608E-02 3.931509E-02 3.931509E-02 4.173400E-02
 4.173400E-02 4.439480E-02 4.439480E-02 4.732168E-02 4.732168E-02
 5.054125E-02 5.054125E-02 5.399269E-02 5.399269E-02 5.744413E-02
 5.744413E-02 6.089557E-02 6.089557E-02 6.434701E-02 6.434701E-02
 6.779845E-02 6.779845E-02 7.124989E-02 7.124989E-02 7.470133E-02
 7.470133E-02 7.815277E-02 7.815277E-02 8.160421E-02 8.160421E-02
 8.505565E-02 8.505565E-02 8.850709E-02 8.850709E-02 9.195853E-02
 9.195853E-02 9.540997E-02 9.540997E-02 9.886141E-02 9.886141E-02
 1.023128E-01 1.023128E-01 1.057643E-01 1.057643E-01 1.092157E-01
 1.092157E-01 1.126672E-01 1.126672E-01 1.161186E-01 1.161186E-01
 1.195700E-01 1.195700E-01 1.230215E-01 1.230215E-01 1.264729E-01
 1.264729E-01 1.299244E-01 1.299244E-01 1.333758E-01 1.333758E-01
 1.368272E-01 1.368272E-01 1.402787E-01 1.402787E-01 1.437301E-01
 1.437301E-01 1.471816E-01 1.471816E-01 1.506330E-01 1.506330E-01
 1.540844E-01 1.540844E-01 1.575359E-01 1.575359E-01 1.609873E-01
 1.609873E-01 1.644388E-01 1.644388E-01 1.678902E-01 1.678902E-01
 1.713416E-01 1.713416E-01 1.747931E-01 1.747931E-01 1.782445E-01
 1.782445E-01 1.816960E-01 1.816960E-01 1.851474E-01 1.851474E-01
 1.885706E-01 1.885706E-01 1.916827E-01 1.916827E-01 1.945118E-01
 1.945118E-01 1.970839E-01 1.970839E-01 8.922372E-05 8.922343E-05
 6.536101E-04 6.536096E-04 1.519833E-03 1.519832E-03 2.572924E-03
 2.572923E-03 3.749357E-03 3.749356E-03 5.006345E-03 5.006345E-03
 6.322440E-03 6.322440E-03 7.683852E-03 7.683851E-03 9.080988E-03
 9.080987E-03 1.050431E-02 1.050431E-02 1.195182E-02 1.195181E-02
 1.341690E-02 1.341689E-02 1.490107E-02 1.490107E-02 1.639478E-02
 1.639478E-02 1.790425E-02 1.790425E-02 1.942154E-02 1.942154E-02
 2.094698E-02 2.094698E-02 2.248360E-02 2.248360E-02 2.402514E-02
 2.402514E-02 2.557345E-02 2.557345E-02 2.712864E-02 2.712864E-02
 2.868715E-02 2.868715E-02 3.025184E-02 3.025184E-02 3.182011E-02
 3.182011E-02 3.339093E-02 3.339093E-02 3.496642E-02 3.496642E-02
 3.654356E-02 3.654356E-02 3.812282E-02 3.812282E-02 3.970396E-02
 3.970396E-02 4.086932E-02 4.086932E-02 4.215184E-02 4.215184E-02
 4.356257E-02 4.356257E-02 4.511351E-02 4.511351E-02 4.681873E-02
 4.681873E-02 4.869398E-02 4.869398E-02 5.075676E-02 5.075675E-02
 5.302581E-02 5.302581E-02 5.552177E-02 5.552177E-02 5.826732E-02
 5.826732E-02 6.128743E-02 6.128743E-02 6.460956E-02 6.460956E-02
 6.826389E-02 6.826389E-02 7.192325E-02 7.192325E-02 7.558260E-02
 7.558260E-02 7.924196E-02 7.924196E-02 8.290131E-02 8.290131E-02
 8.656067E-02 8.656067E-02 9.022002E-02 9.022002E-02 9.387938E-02
 9.387938E-02 9.753874E-02 9.753874E-02 1.011981E-01 1.011981E-01
 1.048574E-01 1.048574E-01 1.085168E-01 1.085168E-01 1.121762E-01
 1.121762E-01 1.158355E-01 1.158355E-01 1.194949E-01 1.194949E-01
 1.231542E-01 1.231542E-01 1.268136E-01 1.268136E-01 1.304729E-01
 1.304729E-01 1.341323E-01 1.341323E-01 1.377916E-01 1.377916E-01
 1.414510E-01 1.414510E-01 1.451104E-01 1.451104E-01 1.487697E-01
 1.487697E-01 1.524291E-01 1.524291E-01 1.560884E-01 1.560884E-01
 1.597478E-01 1.597478E-01 1.634071E-01 1.634071E-01 1.670665E-01
 1.670665E-01 1.707258E-01 1.707258E-01 1.743852E-01 1.743852E-01
 1.780446E-01 1.780446E-01 1.817039E-01 1.817039E-01 1.853593E-01
 1.853593E-01 1.886825E-01 1.886825E-01 1.917035E-01 1.917035E-01
 1.944498E-01 1.944498E-01 1.969465E-01 1.969465E-01 1.995796E-01
 1.995796E-01 2.020087E-01 2.020087E-01 2.043501E-01 2.043501E-01
 2.065859E-01 2.065859E-01 2.087015E-01 2.087015E-01 2.106866E-01
 2.106866E-01 2.125343E-01 2.125343E-01 2.142414E-01 2.142414E-01
 2.158078E-01 2.158078E-01 2.172360E-01 2.172360E-01 2.185308E-01
 2.185308E-01 2.196985E-01 2.196985E-01 2.207466E-01 2.207466E-01
 2.216834E-01 2.216834E-01 2.225176E-01 2.225176E-01 2.232580E-01
 2.232580E-01 2.239130E-01 2.239130E-01 2.244911E-01 2.244911E-01
 2.250000E-01 2.250000E-01 1.994588E-01 1.994588E-01 2.018996E-01
 2.018996E-01 2.042522E-01 2.042522E-01 2.064985E-01 2.064985E-01
 2.086242E-01 2.086242E-01 2.106187E-01 2.106187E-01 2.124751E-01
 2.124751E-01 2.141903E-01 2.141903E-01 2.157641E-01 2.157641E-01
 2.171990E-01 2.171990E-01 2.184999E-01 2.184999E-01 2.196732E-01
 2.196732E-01 2.207263E-01 2.207263E-01 2.216676E-01 2.216676E-01
 2.225057E-01 2.225057E-01 2.232496E-01 2.232496E-01 2.239078E-01
 2.239078E-01 2.244886E-01 2.244886E-01
 2.162598E-19 2.154878E-19 -2.000000E-03 -2.000000E-03 2.147159E-19
 -2.000000E-03 2.139439E-19 -2.000000E-03 2.131720E-19 -2.000000E-03
 2.124000E-19 -2.000000E-03 2.116281E-19 -2.000000E-03 2.108561E-19
 -2.000000E-03 2.100842E-19 -2.000000E-03 2.093123E-19 -2.000000E-03
 2.085403E-19 -2.000000E-03 2.077684E-19 -2.000000E-03 2.069964E-19
 -2.000000E-03 2.062245E-19 -2.000000E-03 -2.282377E-19 -2.000000E-03
 -2.294494E-19 -2.000000E-03 -2.296696E-19 -2.000000E-03 -2.288085E-19
 -2.000000E-03 -2.267577E-19 -2.000000E-03 -2.233852E-19 -2.000000E-03
 -2.185297E-19 -2.000000E-03 -2.119925E-19 -2.000000E-03 -2.035263E-19
 -2.000000E-03 -1.925472E-19 -2.000000E-03 -1.785211E-19 -2.000000E-03
 -1.608864E-19 -2.000000E-03 -1.376618E-19 -2.000000E-03 -1.062210E-19
 -2.000000E-03 -6.035295E-20 -2.000000E-03 9.332201E-21 -2.000000E-03
 2.174908E-19 -2.000000E-03 2.188449E-19 -2.000000E-03 2.203344E-19
 -2.000000E-03 2.219728E-19 -2.000000E-03 2.237752E-19 -2.000000E-03
 2.257577E-19 -2.000000E-03 2.278830E-19 -2.000000E-03 2.300083E-19
 -2.000000E-03 2.321337E-19 -2.000000E-03 2.342590E-19 -2.000000E-03
 2.363843E-19 -2.000000E-03 2.385096E-19 -2.000000E-03 2.406350E-19
 -2.000000E-03 2.427603E-19 -2.000000E-03 2.448856E-19 -2.000000E-03
 2.470109E-19 -2.000000E-03 2.491363E-19 -2.000000E-03 2.512616E-19
 -2.000000E-03 2.533869E-19 -2.000000E-03 2.555122E-19 -2.000000E-03
 2.576375E-19 -2.000000E-03 2.597629E-19 -2.000000E-03 2.618882E-19
 -2.000000E-03 2.640135E-19 -2.000000E-03 2.661388E-19 -2.000000E-03
 2.682642E-19 -2.000000E-03 2.703895E-19 -2.000000E-03 2.725148E-19
 -2.000000E-03 2.746401E-19 -2.000000E-03 2.767655E-19 -2.000000E-03
 2.788908E-19 -2.000000E-03 2.810161E-19 -2.000000E-03 2.831414E-19
 -2.000000E-03 2.852667E-19 -2.000000E-03 2.873921E-19 -2.000000E-03
 2.895174E-19 -2.000000E-03 2.916427E-19 -2.000000E-03 2.937680E-19
 -2.000000E-03 2.958934E-19 -2.000000E-03 2.980187E-19 -2.000000E-03
 3.001440E-19 -2.000000E-03 3.022693E-19 -2.000000E-03 3.043947E-19
 -2.000000E-03 3.065200E-19 -2.000000E-03 3.086453E-19 -2.000000E-03
 3.107533E-19 -2.000000E-03 3.126696E-19 -2.000000E-03 3.144117E-19
 -2.000000E-03 3.177722E-19 -2.000000E-03 1.059942E-19 -2.000000E-03
 1.965139E-19 -2.000000E-03 2.776029E-19 -2.000000E-03 3.499124E-19
 -2.000000E-03 4.147012E-19 -2.000000E-03 4.735480E-19 -2.000000E-03
 5.273316E-19 -2.000000E-03 5.767053E-19 -2.000000E-03 6.221783E-19
 -2.000000E-03 6.644991E-19 -2.000000E-03 7.036261E-19 -2.000000E-03
 7.402160E-19 -2.000000E-03 7.737991E-19 -2.000000E-03 8.057554E-19
 -2.000000E-03 8.348009E-19 -2.000000E-03 8.622780E-19 -2.000000E-03
 8.880086E-19 -2.000000E-03 9.111092E-19 -2.000000E-03 9.329471E-19
 -2.000000E-03 9.529094E-19 -2.000000E-03 9.707531E-19 -2.000000E-03
 9.874757E-19 -2.000000E-03 1.001876E-18 -2.000000E-03 1.014732E-18
 -2.000000E-03 1.026358E-18 -2.000000E-03 1.035309E-18 -2.000000E-03
 1.043098E-18 -2.000000E-03 1.049057E-18 -2.000000E-03 1.052696E-18
 -2.000000E-03 1.054912E-18 -2.000000E-03 1.054939E-18 -2.000000E-03
 1.054359E-18 -2.000000E-03 1.051133E-18 -2.000000E-03 1.275740E-17
 -2.000000E-03 1.275419E-17 -2.000000E-03 1.275065E-17 -2.000000E-03
 1.274676E-17 -2.000000E-03 1.274248E-17 -2.000000E-03 1.273777E-17
 -2.000000E-03 1.273259E-17 -2.000000E-03 1.272690E-17 -2.000000E-03
 1.272063E-17 -2.000000E-03 1.271436E-17 -2.000000E-03 1.270808E-17
 -2.000000E-03 1.270181E-17 -2.000000E-03 1.269553E-17 -2.000000E-03
 1.268926E-17 -2.000000E-03 1.268298E-17 -2.000000E-03 1.267671E-17
 -2.000000E-03 1.267043E-17 -2.000000E-03 1.266416E-17 -2.000000E-03
 1.265788E-17 -2.000000E-03 1.265161E-17 -2.000000E-03 1.264534E-17
 -2.000000E-03 1.263906E-17 -2.000000E-03 1.263279E-17 -2.000000E-03
 1.262651E-17 -2.000000E-03 1.262024E-17 -2.000000E-03 1.261396E-17
 -2.000000E-03 1.260769E-17 -2.000000E-03 1.260141E-17 -2.000000E-03
 1.259514E-17 -2.000000E-03 1.258886E-17 -2.000000E-03 1.258259E-17
 -2.000000E-03 1.257631E-17 -2.000000E-03 1.257004E-17 -2.000000E-03
 1.256377E-17 -2.000000E-03 1.255749E-17 -2.000000E-03 1.255122E-17
 -2.000000E-03 1.254494E-17 -2.000000E-03 1.253867E-17 -2.000000E-03
 1.253239E-17 -2.000000E-03 1.252612E-17 -2.000000E-03 1.251985E-17
 -2.000000E-03 1.251415E-17 -2.000000E-03 1.250897E-17 -2.000000E-03
 1.250426E-17 -2.000000E-03 1.249998E-17 -2.000000E-03 3.087490E-19
 -2.000000E-03 2.999663E-19 -2.000000E-03 2.915008E-19 -2.000000E-03
 2.834175E-19 -2.000000E-03 2.757683E-19 -2.000000E-03 2.685912E-19
 -2.000000E-03 2.619108E-19 -2.000000E-03 2.557387E-19 -2.000000E-03
 2.500753E-19 -2.000000E-03 2.449115E-19 -2.000000E-03 2.402302E-19
 -2.000000E-03 2.360083E-19 -2.000000E-03 2.322188E-19 -2.000000E-03
 2.288316E-19 -2.000000E-03 2.258155E-19 -2.000000E-03 2.231388E-19
 -2.000000E-03 2.207705E-19 -2.000000E-03 2.186805E-19 -2.000000E-03
 2.168404E-19 -2.000000E-03 7.401307E-19 -2.000000E-03 6.901233E-19
 -2.000000E-03 6.419229E-19 -2.000000E-03 5.958994E-19 -2.000000E-03
 5.523482E-19 -2.000000E-03 5.114857E-19 -2.000000E-03 4.734509E-19
 -2.000000E-03 4.383106E-19 -2.000000E-03 4.060669E-19 -2.000000E-03
 3.766670E-19 -2.000000E-03 3.500140E-19 -2.000000E-03 3.259770E-19
 -2.000000E-03 3.044011E-19 -2.000000E-03 2.851158E-19 -2.000000E-03
 2.679431E-19 -2.000000E-03 2.527028E-19 -2.000000E-03 2.392179E-19
 -2.000000E-03 2.273177E-19 -2.000000E-03
 -3.206094E-03 -3.243725E-03 -3.206094E-03 -3.243725E-03 -3.281355E-03
 -3.281355E-03 -3.318986E-03 -3.318986E-03 -3.356617E-03 -3.356617E-03
 -3.394247E-03 -3.394247E-03 -3.431878E-03 -3.431878E-03 -3.469509E-03
 -3.469509E-03 -3.507139E-03 -3.507139E-03 -3.544770E-03 -3.544770E-03
 -3.582401E-03 -3.582401E-03 -3.620031E-03 -3.620031E-03 -3.657662E-03
 -3.657662E-03 -3.695293E-03 -3.695293E-03 -3.727404E-03 -3.727404E-03
 -3.747193E-03 -3.747193E-03 -3.750789E-03 -3.750789E-03 -3.736726E-03
 -3.736726E-03 -3.703234E-03 -3.703234E-03 -3.648157E-03 -3.648157E-03
 -3.568861E-03 -3.568861E-03 -3.462100E-03 -3.462100E-03 -3.323837E-03
 -3.323837E-03 -3.144535E-03 -3.144535E-03 -2.915471E-03 -2.915471E-03
 -2.627474E-03 -2.627474E-03 -2.248188E-03 -2.248188E-03 -1.734721E-03
 -1.734721E-03 -9.856384E-04 -9.856383E-04 1.524064E-04 1.524065E-04
 -3.146085E-03 -3.146085E-03 -3.080076E-03 -3.080076E-03 -3.007465E-03
 -3.007465E-03 -2.927593E-03 -2.927593E-03 -2.839735E-03 -2.839735E-03
 -2.743090E-03 -2.743090E-03 -2.639485E-03 -2.639485E-03 -2.535880E-03
 -2.535880E-03 -2.432275E-03 -2.432275E-03 -2.328670E-03 -2.328670E-03
 -2.225065E-03 -2.225065E-03 -2.121460E-03 -2.121460E-03 -2.017855E-03
 -2.017855E-03 -1.914250E-03 -1.914250E-03 -1.810645E-03 -1.810645E-03
 -1.707040E-03 -1.707040E-03 -1.603435E-03 -1.603435E-03 -1.499830E-03
 -1.499830E-03 -1.396225E-03 -1.396225E-03 -1.292620E-03 -1.292620E-03
 -1.189015E-03 -1.189015E-03 -1.085410E-03 -1.085410E-03 -9.818051E-04
 -9.818051E-04 -8.782002E-04 -8.782002E-04 -7.745952E-04 -7.745952E-04
 -6.709902E-04 -6.709902E-04 -5.673852E-04 -5.673852E-04 -4.637802E-04
 -4.637802E-04 -3.601752E-04 -3.601752E-04 -2.565702E-04 -2.565702E-04
 -1.529653E-04 -1.529652E-04 -4.936026E-05 -4.936026E-05 5.424472E-05
 5.424473E-05 1.578497E-04 1.578497E-04 2.614547E-04 2.614547E-04
 3.650597E-04 3.650597E-04 4.686647E-04 4.686647E-04 5.722697E-04
 5.722697E-04 6.758746E-04 6.758746E-04 7.794796E-04 7.794796E-04
 8.830846E-04 8.830846E-04 9.866896E-04 9.866896E-04 1.090295E-03
 1.090295E-03 1.193900E-03 1.193900E-03 1.297505E-03 1.297505E-03
 1.400263E-03 1.400263E-03 1.493679E-03 1.493679E-03 1.578603E-03
 1.578603E-03 1.648340E-03 1.648340E-03 1.731017E-03 1.731017E-03
 3.209315E-03 3.209315E-03 4.533600E-03 4.533600E-03 5.714503E-03
 5.714503E-03 6.772584E-03 6.772584E-03 7.733626E-03 7.733627E-03
 8.611978E-03 8.611979E-03 9.418311E-03 9.418312E-03 1.016094E-02
 1.016094E-02 1.085209E-02 1.085209E-02 1.149109E-02 1.149109E-02
 1.208864E-02 1.208865E-02 1.263710E-02 1.263710E-02 1.315898E-02
 1.315898E-02 1.363333E-02 1.363333E-02 1.408207E-02 1.408207E-02
 1.450228E-02 1.450228E-02 1.487954E-02 1.487954E-02 1.523618E-02
 1.523618E-02 1.556219E-02 1.556219E-02 1.585360E-02 1.585360E-02
 1.612670E-02 1.612670E-02 1.636187E-02 1.636187E-02 1.657183E-02
 1.657183E-02 1.676170E-02 1.676170E-02 1.690787E-02 1.690787E-02
 1.703508E-02 1.703508E-02 1.713239E-02 1.713239E-02 1.719182E-02
 1.719182E-02 1.722802E-02 1.722802E-02 1.722847E-02 1.722847E-02
 1.721898E-02 1.721898E-02 1.716630E-02 1.716630E-02 1.708772E-02
 1.708772E-02 1.699133E-02 1.699133E-02 1.688531E-02 1.688531E-02
 1.676868E-02 1.676868E-02 1.664040E-02 1.664040E-02 1.649928E-02
 1.649928E-02 1.634405E-02 1.634405E-02 1.617330E-02 1.617330E-02
 1.598547E-02 1.598547E-02 1.579739E-02 1.579739E-02 1.560931E-02
 1.560931E-02 1.542122E-02 1.542122E-02 1.523314E-02 1.523314E-02
 1.504505E-02 1.504505E-02 1.485697E-02 1.485697E-02 1.466888E-02
 1.466888E-02 1.448080E-02 1.448080E-02 1.429272E-02 1.429272E-02
 1.410463E-02 1.410463E-02 1.391655E-02 1.391655E-02 1.372846E-02
 1.372846E-02 1.354038E-02 1.354038E-02 1.335229E-02 1.335229E-02
 1.316421E-02 1.316421E-02 1.297613E-02 1.297612E-02 1.278804E-02
 1.278804E-02 1.259996E-02 1.259996E-02 1.241187E-02 1.241187E-02
 1.222379E-02 1.222379E-02 1.203570E-02 1.203570E-02 1.184762E-02
 1.184762E-02 1.165953E-02 1.165953E-02 1.147145E-02 1.147145E-02
 1.128337E-02 1.128337E-02 1.109528E-02 1.109528E-02 1.090720E-02
 1.090720E-02 1.071911E-02 1.071911E-02 1.053103E-02 1.053103E-02
 1.034294E-02 1.034294E-02 1.015486E-02 1.015486E-02 9.966978E-03
 9.966978E-03 9.796176E-03 9.796176E-03 9.640901E-03 9.640901E-03
 9.499743E-03 9.499742E-03 9.371416E-03 9.371416E-03 1.500981E-03
 1.500981E-03 1.357549E-03 1.357549E-03 1.219296E-03 1.219296E-03
 1.087286E-03 1.087286E-03 9.623645E-04 9.623645E-04 8.451542E-04
 8.451542E-04 7.360543E-04 7.360543E-04 6.352564E-04 6.352564E-04
 5.427672E-04 5.427672E-04 4.584355E-04 4.584355E-04 3.819835E-04
 3.819835E-04 3.130356E-04 3.130356E-04 2.511474E-04 2.511474E-04
 1.958305E-04 1.958305E-04 1.465737E-04 1.465737E-04 1.028604E-04
 1.028604E-04 6.418250E-05 6.418250E-05 3.005039E-05 3.005039E-05
 1.167066E-15 1.278571E-15 8.545979E-03 8.545979E-03 7.729296E-03
 7.729296E-03 6.942123E-03 6.942123E-03 6.190503E-03 6.190503E-03
 5.479258E-03 5.479258E-03 4.811922E-03 4.811922E-03 4.190767E-03
 4.190767E-03 3.616883E-03 3.616883E-03 3.090302E-03 3.090302E-03
 2.610166E-03 2.610166E-03 2.174890E-03 2.174890E-03 1.782336E-03
 1.782336E-03 1.429973E-03 1.429973E-03 1.115021E-03 1.115021E-03
 8.345692E-04 8.345692E-04 5.856771E-04 5.856770E-04 3.654521E-04
 3.654521E-04 1.711070E-04 1.711070E-04
 4.065629E-02 5.622829E-02 3.930070E-02 5.007175E-02 5.896339E-02
 6.270898E-02 5.350869E-02 5.455867E-02 6.756425E-02 7.665537E-02
 8.901506E-02 8.140870E-02 7.926388E-02 7.286846E-02 4.457843E-02
 4.789559E-02 6.786237E-02 6.014508E-02 7.179866E-02 6.897336E-02
 4.580555E-02 3.785501E-02 3.480826E-02 3.516591E-02 -1.737422E-03
 -5.771475E-03 -2.631791E-02 -3.254670E-02 -3.664709E-02 -3.266898E-02
 -4.770602E-02 -4.932534E-02 -7.413395E-02 -7.497200E-02 -7.604835E-02
 -7.250058E-02 -8.019134E-02 -7.918012E-02 -7.561449E-02 -8.365894E-02
 -5.880330E-02 -6.512565E-02 -6.298341E-02 -6.116082E-02 -7.135642E-02
 -6.517282E-02 -1.430368E-02 -1.890822E-02 7.955860E-03 6.432582E-04
 2.780307E-02 3.365841E-02 7.743552E-02 8.416499E-02 3.233036E-01
 3.216063E-01 7.212900E-01 7.178836E-01 8.992665E-01 8.977267E-01
 3.071211E-02 3.387782E-02 3.056921E-02 3.037680E-02 7.720745E-03
 8.305845E-03 2.533748E-02 2.413027E-02 3.472558E-02 3.525955E-02
 3.948956E-02 3.185352E-02 3.712930E-02 2.759207E-02 5.112125E-02
 4.702654E-02 -2.397901E-02 -2.798362E-02 -2.286434E-02 -2.552924E-02
 -1.636672E-02 -1.424803E-02 1.027312E-03 -2.376093E-03 -2.328213E-02
 -2.578242E-02 -3.572608E-02 -3.258754E-02 -3.750225E-02 -2.878194E-02
 -3.389324E-02 -2.909450E-02 -1.585014E-02 -1.140370E-02 -1.048328E-02
 -4.600485E-03 -2.280166E-02 -1.483022E-02 -3.924839E-02 -3.083433E-02
 -3.626359E-02 -2.655991E-02 -5.160062E-03 1.270702E-03 2.615815E-02
 3.191856E-02 -1.749892E-03 5.029796E-03 3.941764E-02 4.631441E-02
 5.706619E-02 6.702273E-02 9.882906E-02 1.100695E-01 9.928286E-02
 1.087952E-01 1.449323E-01 1.530658E-01 1.439390E-01 1.516844E-01
 1.631461E-01 1.675269E-01 1.698077E-01 1.793578E-01 1.297755E-01
 1.396214E-01 1.332568E-01 1.452151E-01 1.162235E-01 1.241108E-01
 1.330942E-01 1.412793E-01 1.079059E-01 1.164279E-01 1.124986E-01
 1.202811E-01 8.318038E-02 9.371106E-02 9.531068E-02 1.084818E-01
 1.473072E-01 1.629456E-01 1.503636E-01 1.670144E-01 1.569380E-01
 1.679335E-01 1.742443E-01 1.853362E-01 2.125923E-01 2.177074E-01
 2.180847E-01 2.273064E-01 2.364245E-01 2.461855E-01 2.599464E-01
 2.716824E-01 2.986864E-01 3.194785E-01 7.011078E-01 7.059945E-01
 2.147508E-01 2.137022E-01 -1.275069E-01 -1.287952E-01 -4.168761E-01
 -4.187646E-01 -5.930627E-01 -5.921168E-01 -7.463053E-01 -7.475939E-01
 -8.091147E-01 -8.024161E-01 -8.928680E-01 -8.907583E-01 -9.873389E-01
 -9.780404E-01 -1.021248E+00 -1.013548E+00 -1.030807E+00 -1.013419E+00
 -1.064025E+00 -1.052964E+00 -1.094486E+00 -1.083531E+00 -1.105628E+00
 -1.098058E+00 -1.119129E+00 -1.111288E+00 -1.111898E+00 -1.098859E+00
 -1.150594E+00 -1.138612E+00 -1.147044E+00 -1.131273E+00 -1.144422E+00
 -1.133220E+00 -1.172886E+00 -1.162109E+00 -1.148979E+00 -1.136972E+00
 -1.132185E+00 -1.116493E+00 -1.147014E+00 -1.138185E+00 -1.114683E+00
 -1.105356E+00 -1.118599E+00 -1.108412E+00 -1.077831E+00 -1.070227E+00
 -1.055114E+00 -1.047557E+00 -1.023655E+00 -1.016050E+00 -9.665862E-01
 -9.629429E-01 -1.012912E+00 -1.009339E+00 -9.809964E-01 -9.810808E-01
 -9.166885E-01 -9.165723E-01 -8.556509E-01 -8.505251E-01 -7.638365E-01
 -7.432271E-01 -7.059835E-01 -7.032250E-01 -6.888646E-01 -6.892170E-01
 -6.204602E-01 -6.048485E-01 -5.258594E-01 -5.156128E-01 -5.138750E-01
 -5.091435E-01 -4.637223E-01 -4.474232E-01 -4.195972E-01 -4.055524E-01
 -4.392358E-01 -4.279534E-01 -3.948163E-01 -3.804415E-01 -3.886189E-01
 -3.823992E-01 -3.926320E-01 -3.926919E-01 -3.213700E-01 -3.196523E-01
 -2.835654E-01 -2.796197E-01 -2.889223E-01 -2.840279E-01 -3.194638E-01
 -3.061124E-01 -3.189587E-01 -3.070708E-01 -2.753527E-01 -2.714887E-01
 -3.037123E-01 -2.938922E-01 -3.200275E-01 -3.142260E-01 -2.868239E-01
 -2.682966E-01 -2.919066E-01 -2.819507E-01 -2.820470E-01 -2.672323E-01
 -2.460404E-01 -2.276686E-01 -1.532269E-01 -1.387576E-01 -1.827270E-01
 -1.732127E-01 -1.310799E-01 -1.303494E-01 -1.072211E-01 -1.022603E-01
 -1.962116E-01 -1.893596E-01 -1.946415E-01 -1.864191E-01 -1.315324E-01
 -1.278365E-01 -1.234049E-01 -1.131924E-01 -2.592113E-01 -2.444438E-01
 -2.509322E-01 -2.456748E-01 -2.237629E-01 -2.174492E-01 -2.112049E-01
 -2.078219E-01 -1.904730E-01 -1.818789E-01 -2.105753E-01 -2.061653E-01
 -1.487581E-01 -1.457701E-01 -1.856010E-01 -1.789456E-01 -1.627001E-01
 -1.620551E-01 -1.983736E-01 -2.007551E-01 -1.724153E-01 -1.746016E-01
 -2.029269E-01 -2.064340E-01 -5.500581E-01 -5.340832E-01 2.720236E-01
 2.810818E-01 1.558174E-01 1.683027E-01 1.743953E-01 1.904728E-01
 8.649140E-02 1.019286E-01 7.935164E-02 8.526697E-02 4.619828E-02
 5.145522E-02 5.528738E-02 6.744261E-02 2.284343E-02 3.395904E-02
 1.913591E-02 2.340839E-02 2.243802E-02 2.834741E-02 4.126140E-02
 5.224288E-02 2.688477E-02 3.602707E-02 2.653785E-02 3.545123E-02
 5.943843E-02 6.426558E-02 8.105802E-02 7.997889E-02 9.081534E-02
 9.983152E-02 9.123471E-02 9.748754E-02 7.818272E-02 9.831666E-02
 2.100489E-01 2.097520E-01 -4.478651E-01 -4.547381E-01 -8.222420E-02
 -8.203193E-02 -2.850245E-02 -3.058643E-02 -9.532308E-03 -7.786188E-03
 3.768983E-03 3.759772E-03 5.231631E-02 5.160109E-02 7.750742E-02
 7.633261E-02 7.045528E-02 6.791362E-02 9.784541E-02 9.979459E-02
 1.200218E-01 1.220122E-01 1.280186E-01 1.300348E-01 1.257902E-01
 1.257142E-01 1.448696E-01 1.509873E-01 1.694974E-01 1.683903E-01
 1.971429E-01 2.003241E-01 1.517324E-01 1.553588E-01 2.333900E-01
 2.292028E-01 2.894599E-01 2.871399E-01
 62 61 1 3
 64 63 61 62
 66 65 63 64
 68 67 65 66
 70 69 67 68
 72 71 69 70
 74 73 71 72
 76 75 73 74
 78 77 75 76
 80 79 77 78
 82 81 79 80
 84 83 81 82
 86 85 83 84
 88 87 85 86
 90 89 87 88
 92 91 89 90
 94 93 91 92
 96 95 93 94
 98 97 95 96
 100 99 97 98
 102 101 99 100
 104 103 101 102
 106 105 103 104
 108 107 105 106
 110 109 107 108
 112 111 109 110
 114 113 111 112
 116 115 113 114
 118 117 115 116
 120 119 117 118
 122 121 119 120
 124 123 121 122
 126 125 123 124
 128 127 125 126
 130 129 127 128
 132 131 129 130
 134 133 131 132
 136 135 133 134
 138 137 135 136
 140 139 137 138
 142 141 139 140
 144 143 141 142
 146 145 143 144
 148 147 145 146
 150 149 147 148
 152 151 149 150
 154 153 151 152
 156 155 153 154
 158 157 155 156
 4 3 1 2
 6 4 2 5
 8 6 5 7
 10 8 7 9
 12 10 9 11
 14 12 11 13
 16 14 13 15
 18 16 15 17
 20 18 17 19
 22 20 19 21
 24 22 21 23
 26 24 23 25
 28 26 25 27
 30 28 27 29
 32 30 29 31
 34 32 31 33
 36 34 33 35
 38 36 35 37
 40 38 37 39
 42 40 39 41
 44 42 41 43
 46 44 43 45
 48 46 45 47
 50 48 47 49
 52 50 49 51
 54 52 51 53
 56 54 53 55
 58 56 55 57
 60 58 57 59
 218 216 215 217
 220 218 217 219
 222 220 219 221
 224 222 221 223
 226 224 223 225
 228 226 225 227
 230 228 227 229
 232 230 229 231
 234 232 231 233
 236 234 233 235
 238 236 235 237
 240 238 237 239
 242 240 239 241
 244 242 241 243
 246 244 243 245
 248 246 245 247
 250 248 247 249
 252 250 249 251
 254 252 251 253
 256 254 253 255
 258 256 255 257
 260 258 257 259
 262 260 259 261
 264 262 261 263
 266 264 263 265
 268 266 265 267
 270 268 267 269
 272 270 269 271
 274 272 271 273
 276 274 273 275
 278 276 275 277
 280 278 277 279
 282 280 279 281
 284 282 281 283
 286 284 283 285
 288 286 285 287
 290 288 287 289
 292 290 289 291
 294 292 291 293
 296 294 293 295
 298 296 295 297
 300 298 297 299
 302 300 299 301
 304 302 301 303
 306 304 303 305
 308 306 305 307
 310 308 307 309
 312 310 309 311
 314 312 311 313
 160 60 59 159
 162 160 159 161
 164 162 161 163
 166 164 163 165
 168 166 165 167
 170 168 167 169
 172 170 169 171
 174 172 171 173
 176 174 173 175
 178 176 175 177
 180 178 177 179
 182 180 179 181
 184 182 181 183
 186 184 183 185
 188 186 185 187
 190 188 187 189
 192 190 189 191
 194 192 191 193
 196 194 193 195
 198 196 195 197
 200 198 197 199
 202 200 199 201
 204 202 201 203
 206 204 203 205
 208 206 205 207
 210 208 207 209
 212 210 209 211
 214 212 211 213
 216 214 213 215
 316 315 157 158
 318 317 315 316
 320 319 317 318
 322 321 319 320
 324 323 321 322
 326 325 323 324
 328 327 325 326
 330 329 327 328
 332 331 329 330
 334 333 331 332
 336 335 333 334
 338 337 335 336
 340 339 337 338
 342 341 339 340
 344 343 341 342
 346 345 343 344
 348 347 345 346
 350 349 347 348
 352 351 349 350
 354 314 313 353
 356 354 353 355
 358 356 355 357
 360 358 357 359
 362 360 359 361
 364 362 361 363
 366 364 363 365
 368 366 365 367
 370 368 367 369
 372 370 369 371
 374 372 371 373
 376 374 373 375
 378 376 375 377
 380 378 377 379
 382 380 379 381
 384 382 381 383
 386 384 383 385
 388 386 385 387
 352 388 387 351
