# vtk DataFile Version 4.0
vtk output
ASCII
DATASET UNSTRUCTURED_GRID
POINTS 824 float
-6.4148600e-05 1.0000000e-02 -4.4525366e-03 
-1.0680180e-04 1.0000000e-02 -2.8088474e-03 
3.4513260e-04 1.0000000e-02 -6.0450544e-03 
1.3803532e-03 1.0000000e-02 -7.3230534e-03 
6.5829700e-05 1.0000000e-02 -1.1736922e-03 
2.7142144e-03 1.0000000e-02 -8.2851896e-03 
5.0392030e-04 1.0000000e-02 6.5784910e-04 
4.1780764e-03 1.0000000e-02 -9.0342357e-03 
1.1628646e-03 1.0000000e-02 2.4220088e-03 
5.7070961e-03 1.0000000e-02 -9.6390187e-03 
2.0046218e-03 1.0000000e-02 4.1066196e-03 
7.2731595e-03 1.0000000e-02 -1.0140047e-02 
-6.4148600e-05 0.0000000e+00 -4.4525366e-03 
-1.0680180e-04 0.0000000e+00 -2.8088474e-03 
3.4513260e-04 0.0000000e+00 -6.0450544e-03 
1.3803532e-03 0.0000000e+00 -7.3230534e-03 
6.5829700e-05 0.0000000e+00 -1.1736922e-03 
2.9952540e-03 1.0000000e-02 5.7082181e-03 
8.8622628e-03 1.0000000e-02 -1.0562311e-02 
2.7142144e-03 0.0000000e+00 -8.2851896e-03 
5.0392030e-04 0.0000000e+00 6.5784910e-04 
4.1780764e-03 0.0000000e+00 -9.0342357e-03 
1.1628646e-03 0.0000000e+00 2.4220088e-03 
1.0466628e-02 1.0000000e-02 -1.0922252e-02 
4.1067238e-03 1.0000000e-02 7.2284501e-03 
5.7070961e-03 0.0000000e+00 -9.6390187e-03 
2.0046218e-03 0.0000000e+00 4.1066196e-03 
7.2731595e-03 0.0000000e+00 -1.0140047e-02 
1.2081579e-02 1.0000000e-02 -1.1231240e-02 
5.3166988e-03 1.0000000e-02 8.6715129e-03 
2.9952540e-03 0.0000000e+00 5.7082181e-03 
8.8622628e-03 0.0000000e+00 -1.0562311e-02 
1.3704120e-02 1.0000000e-02 -1.1497501e-02 
1.0466628e-02 0.0000000e+00 -1.0922252e-02 
4.1067238e-03 0.0000000e+00 7.2284501e-03 
6.6076374e-03 1.0000000e-02 1.0042624e-02 
1.5332244e-02 1.0000000e-02 -1.1727173e-02 
1.2081579e-02 0.0000000e+00 -1.1231240e-02 
5.3166988e-03 0.0000000e+00 8.6715129e-03 
7.9658343e-03 1.0000000e-02 1.1347144e-02 
1.3704120e-02 0.0000000e+00 -1.1497501e-02 
1.6964543e-02 1.0000000e-02 -1.1925002e-02 
6.6076374e-03 0.0000000e+00 1.0042624e-02 
9.3804686e-03 1.0000000e-02 1.2590236e-02 
1.5332244e-02 0.0000000e+00 -1.1727173e-02 
1.8600004e-02 1.0000000e-02 -1.2094716e-02 
7.9658343e-03 0.0000000e+00 1.1347144e-02 
1.6964543e-02 0.0000000e+00 -1.1925002e-02 
1.0843002e-02 1.0000000e-02 1.3776601e-02 
2.0237876e-02 1.0000000e-02 -1.2239318e-02 
9.3804686e-03 0.0000000e+00 1.2590236e-02 
1.8600004e-02 0.0000000e+00 -1.2094716e-02 
1.2346566e-02 1.0000000e-02 1.4910517e-02 
2.1877591e-02 1.0000000e-02 -1.2361246e-02 
1.0843002e-02 0.0000000e+00 1.3776601e-02 
2.0237876e-02 0.0000000e+00 -1.2239318e-02 
1.3885623e-02 1.0000000e-02 1.5995768e-02 
2.3518711e-02 1.0000000e-02 -1.2462540e-02 
1.2346566e-02 0.0000000e+00 1.4910517e-02 
2.1877591e-02 0.0000000e+00 -1.2361246e-02 
2.5160890e-02 1.0000000e-02 -1.2544903e-02 
1.5455654e-02 1.0000000e-02 1.7035707e-02 
1.3885623e-02 0.0000000e+00 1.5995768e-02 
2.3518711e-02 0.0000000e+00 -1.2462540e-02 
2.6803852e-02 1.0000000e-02 -1.2609772e-02 
1.7052912e-02 1.0000000e-02 1.8033321e-02 
2.5160890e-02 0.0000000e+00 -1.2544903e-02 
1.5455654e-02 0.0000000e+00 1.7035707e-02 
2.8447376e-02 1.0000000e-02 -1.2658389e-02 
2.6803852e-02 0.0000000e+00 -1.2609772e-02 
1.7052912e-02 0.0000000e+00 1.8033321e-02 
1.8674284e-02 1.0000000e-02 1.8991246e-02 
3.0091279e-02 1.0000000e-02 -1.2691814e-02 
2.8447376e-02 0.0000000e+00 -1.2658389e-02 
1.8674284e-02 0.0000000e+00 1.8991246e-02 
2.0317149e-02 1.0000000e-02 1.9911822e-02 
3.0091279e-02 0.0000000e+00 -1.2691814e-02 
3.1735410e-02 1.0000000e-02 -1.2710971e-02 
2.0317149e-02 0.0000000e+00 1.9911822e-02 
2.1979295e-02 1.0000000e-02 2.0797113e-02 
3.1735410e-02 0.0000000e+00 -1.2710971e-02 
3.3379643e-02 1.0000000e-02 -1.2716676e-02 
2.1979295e-02 0.0000000e+00 2.0797113e-02 
2.3658832e-02 1.0000000e-02 2.1648949e-02 
3.3379643e-02 0.0000000e+00 -1.2716676e-02 
3.5023871e-02 1.0000000e-02 -1.2709629e-02 
2.3658832e-02 0.0000000e+00 2.1648949e-02 
2.5354100e-02 1.0000000e-02 2.2469029e-02 
3.5023871e-02 0.0000000e+00 -1.2709629e-02 
3.6668001e-02 1.0000000e-02 -1.2690457e-02 
2.5354100e-02 0.0000000e+00 2.2469029e-02 
2.7063712e-02 1.0000000e-02 2.3258772e-02 
3.6668001e-02 0.0000000e+00 -1.2690457e-02 
3.8312016e-02 1.0000000e-02 -1.2663038e-02 
2.7063712e-02 0.0000000e+00 2.3258772e-02 
3.8312016e-02 0.0000000e+00 -1.2663038e-02 
2.8786417e-02 1.0000000e-02 2.4019532e-02 
3.9956032e-02 1.0000000e-02 -1.2635752e-02 
2.8786417e-02 0.0000000e+00 2.4019532e-02 
3.9956032e-02 0.0000000e+00 -1.2635752e-02 
3.0521135e-02 1.0000000e-02 2.4752486e-02 
4.1600048e-02 1.0000000e-02 -1.2608467e-02 
3.0521135e-02 0.0000000e+00 2.4752486e-02 
4.1600048e-02 0.0000000e+00 -1.2608467e-02 
3.2266919e-02 1.0000000e-02 2.5458676e-02 
4.3299814e-02 1.0000000e-02 -1.2580255e-02 
3.2266919e-02 0.0000000e+00 2.5458676e-02 
4.3299814e-02 0.0000000e+00 -1.2580255e-02 
3.4022902e-02 1.0000000e-02 2.6139111e-02 
4.5339533e-02 1.0000000e-02 -1.2546402e-02 
3.4022902e-02 0.0000000e+00 2.6139111e-02 
4.5339533e-02 0.0000000e+00 -1.2546402e-02 
3.5788340e-02 1.0000000e-02 2.6794623e-02 
4.7787196e-02 1.0000000e-02 -1.2505778e-02 
3.5788340e-02 0.0000000e+00 2.6794623e-02 
3.7562554e-02 1.0000000e-02 2.7425996e-02 
4.7787196e-02 0.0000000e+00 -1.2505778e-02 
3.7562554e-02 0.0000000e+00 2.7425996e-02 
3.9344928e-02 1.0000000e-02 2.8033950e-02 
5.0379113e-02 1.0000000e-02 -1.2462760e-02 
3.9344928e-02 0.0000000e+00 2.8033950e-02 
5.0379113e-02 0.0000000e+00 -1.2462760e-02 
4.1134916e-02 1.0000000e-02 2.8619109e-02 
5.2971029e-02 1.0000000e-02 -1.2419741e-02 
4.1134916e-02 0.0000000e+00 2.8619109e-02 
5.2971029e-02 0.0000000e+00 -1.2419741e-02 
4.2932026e-02 1.0000000e-02 2.9182016e-02 
4.2932026e-02 0.0000000e+00 2.9182016e-02 
5.5562946e-02 1.0000000e-02 -1.2376723e-02 
4.5339682e-02 1.0000000e-02 2.9899231e-02 
5.5562946e-02 0.0000000e+00 -1.2376723e-02 
4.5339682e-02 0.0000000e+00 2.9899231e-02 
5.8154863e-02 1.0000000e-02 -1.2333705e-02 
4.7758221e-02 1.0000000e-02 3.0578844e-02 
5.8154863e-02 0.0000000e+00 -1.2333705e-02 
4.7758221e-02 0.0000000e+00 3.0578844e-02 
6.0746779e-02 1.0000000e-02 -1.2290686e-02 
5.0186760e-02 1.0000000e-02 3.1221807e-02 
6.0746779e-02 0.0000000e+00 -1.2290686e-02 
5.0186760e-02 0.0000000e+00 3.1221807e-02 
6.3338696e-02 1.0000000e-02 -1.2247668e-02 
5.2624513e-02 1.0000000e-02 3.1828903e-02 
6.3338696e-02 0.0000000e+00 -1.2247668e-02 
5.2624513e-02 0.0000000e+00 3.1828903e-02 
5.5070762e-02 1.0000000e-02 3.2400804e-02 
6.5930613e-02 1.0000000e-02 -1.2204650e-02 
5.5070762e-02 0.0000000e+00 3.2400804e-02 
6.5930613e-02 0.0000000e+00 -1.2204650e-02 
5.7524847e-02 1.0000000e-02 3.2938082e-02 
6.8522529e-02 1.0000000e-02 -1.2161631e-02 
5.7524847e-02 0.0000000e+00 3.2938082e-02 
6.8522529e-02 0.0000000e+00 -1.2161631e-02 
5.9986169e-02 1.0000000e-02 3.3441170e-02 
7.1114446e-02 1.0000000e-02 -1.2118613e-02 
5.9986169e-02 0.0000000e+00 3.3441170e-02 
7.1114446e-02 0.0000000e+00 -1.2118613e-02 
6.2454163e-02 1.0000000e-02 3.3910436e-02 
6.2454163e-02 0.0000000e+00 3.3910436e-02 
7.3706362e-02 1.0000000e-02 -1.2075595e-02 
7.3706362e-02 0.0000000e+00 -1.2075595e-02 
6.4928303e-02 1.0000000e-02 3.4346139e-02 
6.4928303e-02 0.0000000e+00 3.4346139e-02 
7.6298279e-02 1.0000000e-02 -1.2032577e-02 
7.6298279e-02 0.0000000e+00 -1.2032577e-02 
6.7408092e-02 1.0000000e-02 3.4748446e-02 
6.7408092e-02 0.0000000e+00 3.4748446e-02 
7.8890196e-02 1.0000000e-02 -1.1989558e-02 
7.8890196e-02 0.0000000e+00 -1.1989558e-02 
6.9893057e-02 1.0000000e-02 3.5117436e-02 
6.9893057e-02 0.0000000e+00 3.5117436e-02 
8.1482112e-02 1.0000000e-02 -1.1946540e-02 
8.1482112e-02 0.0000000e+00 -1.1946540e-02 
7.2382742e-02 1.0000000e-02 3.5453098e-02 
7.2382742e-02 0.0000000e+00 3.5453098e-02 
8.4074029e-02 1.0000000e-02 -1.1903522e-02 
7.4876707e-02 1.0000000e-02 3.5755332e-02 
8.4074029e-02 0.0000000e+00 -1.1903522e-02 
7.4876707e-02 0.0000000e+00 3.5755332e-02 
8.6665946e-02 1.0000000e-02 -1.1860503e-02 
7.7374516e-02 1.0000000e-02 3.6023948e-02 
8.6665946e-02 0.0000000e+00 -1.1860503e-02 
7.7374516e-02 0.0000000e+00 3.6023948e-02 
8.9257862e-02 1.0000000e-02 -1.1817485e-02 
7.9875738e-02 1.0000000e-02 3.6258665e-02 
8.9257862e-02 0.0000000e+00 -1.1817485e-02 
7.9875738e-02 0.0000000e+00 3.6258665e-02 
8.2379940e-02 1.0000000e-02 3.6459105e-02 
9.1849779e-02 1.0000000e-02 -1.1774467e-02 
8.2379940e-02 0.0000000e+00 3.6459105e-02 
9.1849779e-02 0.0000000e+00 -1.1774467e-02 
8.4886681e-02 1.0000000e-02 3.6624786e-02 
9.4441696e-02 1.0000000e-02 -1.1731448e-02 
8.4886681e-02 0.0000000e+00 3.6624786e-02 
9.4441696e-02 0.0000000e+00 -1.1731448e-02 
8.7395510e-02 1.0000000e-02 3.6755108e-02 
8.7395510e-02 0.0000000e+00 3.6755108e-02 
9.7033612e-02 1.0000000e-02 -1.1688430e-02 
9.7033612e-02 0.0000000e+00 -1.1688430e-02 
8.9905951e-02 1.0000000e-02 3.6849401e-02 
8.9905951e-02 0.0000000e+00 3.6849401e-02 
9.9625529e-02 1.0000000e-02 -1.1645412e-02 
9.9625529e-02 0.0000000e+00 -1.1645412e-02 
9.2417505e-02 1.0000000e-02 3.6906832e-02 
9.2417505e-02 0.0000000e+00 3.6906832e-02 
1.0221745e-01 1.0000000e-02 -1.1602393e-02 
1.0221745e-01 0.0000000e+00 -1.1602393e-02 
9.4929640e-02 1.0000000e-02 3.6926425e-02 
9.4929640e-02 0.0000000e+00 3.6926425e-02 
1.0480936e-01 1.0000000e-02 -1.1559375e-02 
1.0480936e-01 0.0000000e+00 -1.1559375e-02 
9.7441776e-02 1.0000000e-02 3.6907077e-02 
9.7441776e-02 0.0000000e+00 3.6907077e-02 
1.0740128e-01 1.0000000e-02 -1.1516357e-02 
1.0740128e-01 0.0000000e+00 -1.1516357e-02 
9.9953281e-02 1.0000000e-02 3.6847529e-02 
9.9953281e-02 0.0000000e+00 3.6847529e-02 
1.0999320e-01 1.0000000e-02 -1.1473339e-02 
1.0246345e-01 1.0000000e-02 3.6746314e-02 
1.0999320e-01 0.0000000e+00 -1.1473339e-02 
1.0246345e-01 0.0000000e+00 3.6746314e-02 
1.0497150e-01 1.0000000e-02 3.6601738e-02 
1.1258511e-01 1.0000000e-02 -1.1430320e-02 
1.0497150e-01 0.0000000e+00 3.6601738e-02 
1.1258511e-01 0.0000000e+00 -1.1430320e-02 
1.0747666e-01 1.0000000e-02 3.6413638e-02 
1.1517703e-01 1.0000000e-02 -1.1387302e-02 
1.0747666e-01 0.0000000e+00 3.6413638e-02 
[...]
POINT_DATA 824
FIELD FieldData 2
DISPLACEMENT 3 824  float
0.0000000e+00 0.0000000e+00 0.0000000e+00 
0.0000000e+00 0.0000000e+00 0.0000000e+00 
0.0000000e+00 0.0000000e+00 0.0000000e+00 
0.0000000e+00 0.0000000e+00 0.0000000e+00 
0.0000000e+00 0.0000000e+00 0.0000000e+00 
0.0000000e+00 0.0000000e+00 0.0000000e+00 
0.0000000e+00 0.0000000e+00 0.0000000e+00 
0.0000000e+00 0.0000000e+00 0.0000000e+00 
0.0000000e+00 0.0000000e+00 0.0000000e+00 
0.0000000e+00 0.0000000e+00 0.0000000e+00 
0.0000000e+00 0.0000000e+00 0.0000000e+00 
0.0000000e+00 0.0000000e+00 0.0000000e+00 
0.0000000e+00 0.0000000e+00 0.0000000e+00 
0.0000000e+00 0.0000000e+00 0.0000000e+00 
0.0000000e+00 0.0000000e+00 0.0000000e+00 
0.0000000e+00 0.0000000e+00 0.0000000e+00 
0.0000000e+00 0.0000000e+00 0.0000000e+00 
0.0000000e+00 0.0000000e+00 0.0000000e+00 
0.0000000e+00 0.0000000e+00 0.0000000e+00 
0.0000000e+00 0.0000000e+00 0.0000000e+00 
0.0000000e+00 0.0000000e+00 0.0000000e+00 
0.0000000e+00 0.0000000e+00 0.0000000e+00 
0.0000000e+00 0.0000000e+00 0.0000000e+00 
0.0000000e+00 0.0000000e+00 0.0000000e+00 
0.0000000e+00 0.0000000e+00 0.0000000e+00 
0.0000000e+00 0.0000000e+00 0.0000000e+00 
0.0000000e+00 0.0000000e+00 0.0000000e+00 
0.0000000e+00 0.0000000e+00 0.0000000e+00 
0.0000000e+00 0.0000000e+00 0.0000000e+00 
0.0000000e+00 0.0000000e+00 0.0000000e+00 
0.0000000e+00 0.0000000e+00 0.0000000e+00 
0.0000000e+00 0.0000000e+00 0.0000000e+00 
0.0000000e+00 0.0000000e+00 0.0000000e+00 
0.0000000e+00 0.0000000e+00 0.0000000e+00 
0.0000000e+00 0.0000000e+00 0.0000000e+00 
0.0000000e+00 0.0000000e+00 0.0000000e+00 
0.0000000e+00 0.0000000e+00 0.0000000e+00 
0.0000000e+00 0.0000000e+00 0.0000000e+00 
0.0000000e+00 0.0000000e+00 0.0000000e+00 
0.0000000e+00 0.0000000e+00 0.0000000e+00 
0.0000000e+00 0.0000000e+00 0.0000000e+00 
0.0000000e+00 0.0000000e+00 0.0000000e+00 
0.0000000e+00 0.0000000e+00 0.0000000e+00 
0.0000000e+00 0.0000000e+00 0.0000000e+00 
0.0000000e+00 0.0000000e+00 0.0000000e+00 
0.0000000e+00 0.0000000e+00 0.0000000e+00 
0.0000000e+00 0.0000000e+00 0.0000000e+00 
0.0000000e+00 0.0000000e+00 0.0000000e+00 
0.0000000e+00 0.0000000e+00 0.0000000e+00 
0.0000000e+00 0.0000000e+00 0.0000000e+00 
0.0000000e+00 0.0000000e+00 0.0000000e+00 
0.0000000e+00 0.0000000e+00 0.0000000e+00 
0.0000000e+00 0.0000000e+00 0.0000000e+00 
0.0000000e+00 0.0000000e+00 0.0000000e+00 
0.0000000e+00 0.0000000e+00 0.0000000e+00 
0.0000000e+00 0.0000000e+00 0.0000000e+00 
0.0000000e+00 0.0000000e+00 0.0000000e+00 
0.0000000e+00 0.0000000e+00 0.0000000e+00 
0.0000000e+00 0.0000000e+00 0.0000000e+00 
0.0000000e+00 0.0000000e+00 0.0000000e+00 
0.0000000e+00 0.0000000e+00 0.0000000e+00 
0.0000000e+00 0.0000000e+00 0.0000000e+00 
0.0000000e+00 0.0000000e+00 0.0000000e+00 
0.0000000e+00 0.0000000e+00 0.0000000e+00 
0.0000000e+00 0.0000000e+00 0.0000000e+00 
0.0000000e+00 0.0000000e+00 0.0000000e+00 
0.0000000e+00 0.0000000e+00 0.0000000e+00 
0.0000000e+00 0.0000000e+00 0.0000000e+00 
0.0000000e+00 0.0000000e+00 0.0000000e+00 
0.0000000e+00 0.0000000e+00 0.0000000e+00 
0.0000000e+00 0.0000000e+00 0.0000000e+00 
0.0000000e+00 0.0000000e+00 0.0000000e+00 
0.0000000e+00 0.0000000e+00 0.0000000e+00 
0.0000000e+00 0.0000000e+00 0.0000000e+00 
0.0000000e+00 0.0000000e+00 0.0000000e+00 
0.0000000e+00 0.0000000e+00 0.0000000e+00 
0.0000000e+00 0.0000000e+00 0.0000000e+00 
0.0000000e+00 0.0000000e+00 0.0000000e+00 
0.0000000e+00 0.0000000e+00 0.0000000e+00 
0.0000000e+00 0.0000000e+00 0.0000000e+00 
0.0000000e+00 0.0000000e+00 0.0000000e+00 
0.0000000e+00 0.0000000e+00 0.0000000e+00 
0.0000000e+00 0.0000000e+00 0.0000000e+00 
0.0000000e+00 0.0000000e+00 0.0000000e+00 
0.0000000e+00 0.0000000e+00 0.0000000e+00 
0.0000000e+00 0.0000000e+00 0.0000000e+00 
0.0000000e+00 0.0000000e+00 0.0000000e+00 
0.0000000e+00 0.0000000e+00 0.0000000e+00 
0.0000000e+00 0.0000000e+00 0.0000000e+00 
0.0000000e+00 0.0000000e+00 0.0000000e+00 
0.0000000e+00 0.0000000e+00 0.0000000e+00 
0.0000000e+00 0.0000000e+00 0.0000000e+00 
0.0000000e+00 0.0000000e+00 0.0000000e+00 
0.0000000e+00 0.0000000e+00 0.0000000e+00 
0.0000000e+00 0.0000000e+00 0.0000000e+00 
0.0000000e+00 0.0000000e+00 0.0000000e+00 
0.0000000e+00 0.0000000e+00 0.0000000e+00 
-7.2588740e-05 0.0000000e+00 -6.3995291e-04 
0.0000000e+00 0.0000000e+00 0.0000000e+00 
-7.2588740e-05 0.0000000e+00 -6.3995291e-04 
0.0000000e+00 0.0000000e+00 0.0000000e+00 
-1.4335706e-04 0.0000000e+00 -1.2752149e-03 
0.0000000e+00 0.0000000e+00 0.0000000e+00 
-1.4335706e-04 0.0000000e+00 -1.2752149e-03 
0.0000000e+00 0.0000000e+00 0.0000000e+00 
-2.1462592e-04 0.0000000e+00 -1.9270841e-03 
0.0000000e+00 0.0000000e+00 0.0000000e+00 
-2.1462592e-04 0.0000000e+00 -1.9270841e-03 
0.0000000e+00 0.0000000e+00 0.0000000e+00 
-2.9762112e-04 0.0000000e+00 -2.7026921e-03 
0.0000000e+00 0.0000000e+00 0.0000000e+00 
-2.9762112e-04 0.0000000e+00 -2.7026921e-03 
0.0000000e+00 0.0000000e+00 0.0000000e+00 
-3.9361151e-04 0.0000000e+00 -3.6238564e-03 
0.0000000e+00 0.0000000e+00 0.0000000e+00 
0.0000000e+00 0.0000000e+00 0.0000000e+00 
-3.9361151e-04 0.0000000e+00 -3.6238564e-03 
0.0000000e+00 0.0000000e+00 0.0000000e+00 
0.0000000e+00 0.0000000e+00 0.0000000e+00 
-4.9102242e-04 0.0000000e+00 -4.5879153e-03 
0.0000000e+00 0.0000000e+00 0.0000000e+00 
-4.9102242e-04 0.0000000e+00 -4.5879153e-03 
0.0000000e+00 0.0000000e+00 0.0000000e+00 
-5.8412964e-04 0.0000000e+00 -5.5402342e-03 
0.0000000e+00 0.0000000e+00 0.0000000e+00 
-5.8412964e-04 0.0000000e+00 -5.5402342e-03 
0.0000000e+00 0.0000000e+00 0.0000000e+00 
0.0000000e+00 0.0000000e+00 0.0000000e+00 
-6.7298854e-04 0.0000000e+00 -6.4807917e-03 
0.0000000e+00 0.0000000e+00 0.0000000e+00 
-6.7298854e-04 0.0000000e+00 -6.4807917e-03 
0.0000000e+00 0.0000000e+00 0.0000000e+00 
-7.5765441e-04 0.0000000e+00 -7.4095685e-03 
0.0000000e+00 0.0000000e+00 0.0000000e+00 
-7.5765441e-04 0.0000000e+00 -7.4095685e-03 
0.0000000e+00 0.0000000e+00 0.0000000e+00 
-8.3818266e-04 0.0000000e+00 -8.3265459e-03 
0.0000000e+00 0.0000000e+00 0.0000000e+00 
-8.3818266e-04 0.0000000e+00 -8.3265459e-03 
0.0000000e+00 0.0000000e+00 0.0000000e+00 
-9.1462891e-04 0.0000000e+00 -9.2317031e-03 
0.0000000e+00 0.0000000e+00 0.0000000e+00 
-9.1462891e-04 0.0000000e+00 -9.2317031e-03 
0.0000000e+00 0.0000000e+00 0.0000000e+00 
0.0000000e+00 0.0000000e+00 0.0000000e+00 
-9.8704875e-04 0.0000000e+00 -1.0125022e-02 
0.0000000e+00 0.0000000e+00 0.0000000e+00 
-9.8704875e-04 0.0000000e+00 -1.0125022e-02 
0.0000000e+00 0.0000000e+00 0.0000000e+00 
-1.0554978e-03 0.0000000e+00 -1.1006484e-02 
0.0000000e+00 0.0000000e+00 0.0000000e+00 
-1.0554978e-03 0.0000000e+00 -1.1006484e-02 
0.0000000e+00 0.0000000e+00 0.0000000e+00 
-1.1200321e-03 0.0000000e+00 -1.1876069e-02 
0.0000000e+00 0.0000000e+00 0.0000000e+00 
-1.1200321e-03 0.0000000e+00 -1.1876069e-02 
0.0000000e+00 0.0000000e+00 0.0000000e+00 
0.0000000e+00 0.0000000e+00 0.0000000e+00 
-1.1807073e-03 0.0000000e+00 -1.2733760e-02 
-1.1807073e-03 0.0000000e+00 -1.2733760e-02 
0.0000000e+00 0.0000000e+00 0.0000000e+00 
0.0000000e+00 0.0000000e+00 0.0000000e+00 
-1.2375795e-03 0.0000000e+00 -1.3579538e-02 
-1.2375795e-03 0.0000000e+00 -1.3579538e-02 
0.0000000e+00 0.0000000e+00 0.0000000e+00 
0.0000000e+00 0.0000000e+00 0.0000000e+00 
-1.2907047e-03 0.0000000e+00 -1.4413388e-02 
-1.2907047e-03 0.0000000e+00 -1.4413388e-02 
0.0000000e+00 0.0000000e+00 0.0000000e+00 
0.0000000e+00 0.0000000e+00 0.0000000e+00 
-1.3401391e-03 0.0000000e+00 -1.5235289e-02 
-1.3401391e-03 0.0000000e+00 -1.5235289e-02 
0.0000000e+00 0.0000000e+00 0.0000000e+00 
0.0000000e+00 0.0000000e+00 0.0000000e+00 
-1.3859389e-03 0.0000000e+00 -1.6045226e-02 
0.0000000e+00 0.0000000e+00 0.0000000e+00 
-1.3859389e-03 0.0000000e+00 -1.6045226e-02 
0.0000000e+00 0.0000000e+00 0.0000000e+00 
-1.4281604e-03 0.0000000e+00 -1.6843182e-02 
0.0000000e+00 0.0000000e+00 0.0000000e+00 
-1.4281604e-03 0.0000000e+00 -1.6843182e-02 
0.0000000e+00 0.0000000e+00 0.0000000e+00 
-1.4668599e-03 0.0000000e+00 -1.7629138e-02 
0.0000000e+00 0.0000000e+00 0.0000000e+00 
-1.4668599e-03 0.0000000e+00 -1.7629138e-02 
0.0000000e+00 0.0000000e+00 0.0000000e+00 
0.0000000e+00 0.0000000e+00 0.0000000e+00 
-1.5020940e-03 0.0000000e+00 -1.8403080e-02 
0.0000000e+00 0.0000000e+00 0.0000000e+00 
-1.5020940e-03 0.0000000e+00 -1.8403080e-02 
0.0000000e+00 0.0000000e+00 0.0000000e+00 
-1.5339192e-03 0.0000000e+00 -1.9164992e-02 
0.0000000e+00 0.0000000e+00 0.0000000e+00 
-1.5339192e-03 0.0000000e+00 -1.9164992e-02 
0.0000000e+00 0.0000000e+00 0.0000000e+00 
0.0000000e+00 0.0000000e+00 0.0000000e+00 
-1.5623921e-03 0.0000000e+00 -1.9914856e-02 
-1.5623921e-03 0.0000000e+00 -1.9914856e-02 
0.0000000e+00 0.0000000e+00 0.0000000e+00 
0.0000000e+00 0.0000000e+00 0.0000000e+00 
-1.5875694e-03 0.0000000e+00 -2.0652658e-02 
-1.5875694e-03 0.0000000e+00 -2.0652658e-02 
0.0000000e+00 0.0000000e+00 0.0000000e+00 
0.0000000e+00 0.0000000e+00 0.0000000e+00 
-1.6095078e-03 0.0000000e+00 -2.1378384e-02 
-1.6095078e-03 0.0000000e+00 -2.1378384e-02 
0.0000000e+00 0.0000000e+00 0.0000000e+00 
0.0000000e+00 0.0000000e+00 0.0000000e+00 
-1.6282642e-03 0.0000000e+00 -2.2092013e-02 
-1.6282642e-03 0.0000000e+00 -2.2092013e-02 
0.0000000e+00 0.0000000e+00 0.0000000e+00 
0.0000000e+00 0.0000000e+00 0.0000000e+00 
-1.6438955e-03 0.0000000e+00 -2.2793537e-02 
-1.6438955e-03 0.0000000e+00 -2.2793537e-02 
0.0000000e+00 0.0000000e+00 0.0000000e+00 
0.0000000e+00 0.0000000e+00 0.0000000e+00 
-1.6564586e-03 0.0000000e+00 -2.3482939e-02 
0.0000000e+00 0.0000000e+00 0.0000000e+00 
-1.6564586e-03 0.0000000e+00 -2.3482939e-02 
0.0000000e+00 0.0000000e+00 0.0000000e+00 
-1.9486953e-04 0.0000000e+00 -9.8021542e-04 
-1.6660106e-03 0.0000000e+00 -2.4160202e-02 
-1.9486953e-04 0.0000000e+00 -9.8021542e-04 
-1.6660106e-03 0.0000000e+00 -2.4160202e-02 
-3.8155867e-04 0.0000000e+00 -1.9059571e-03 
-1.6726086e-03 0.0000000e+00 -2.4825317e-02 
-3.8155867e-04 0.0000000e+00 -1.9059571e-03 
-1.6726086e-03 0.0000000e+00 -2.4825317e-02 
-5.6205244e-04 0.0000000e+00 -2.8084117e-03 
-5.6205244e-04 0.0000000e+00 -2.8084117e-03 
-1.6763098e-03 0.0000000e+00 -2.5478266e-02 
-1.6763098e-03 0.0000000e+00 -2.5478266e-02 
-7.3735867e-04 0.0000000e+00 -3.6998711e-03 
-7.3735867e-04 0.0000000e+00 -3.6998711e-03 
-1.6771714e-03 0.0000000e+00 -2.6119037e-02 
-1.6771714e-03 0.0000000e+00 -2.6119037e-02 
-9.0752805e-04 0.0000000e+00 -4.5803044e-03 
-9.0752805e-04 0.0000000e+00 -4.5803044e-03 
-1.6752507e-03 0.0000000e+00 -2.6747618e-02 
-1.6752507e-03 0.0000000e+00 -2.6747618e-02 
-1.0726141e-03 0.0000000e+00 -5.4496938e-03 
-1.0726141e-03 0.0000000e+00 -5.4496938e-03 
-1.6706050e-03 0.0000000e+00 -2.7363995e-02 
-1.6706050e-03 0.0000000e+00 -2.7363995e-02 
-1.2326678e-03 0.0000000e+00 -6.3080090e-03 
-1.2326678e-03 0.0000000e+00 -6.3080090e-03 
-1.6632918e-03 0.0000000e+00 -2.7968154e-02 
-1.6632918e-03 0.0000000e+00 -2.7968154e-02 
-1.3877428e-03 0.0000000e+00 -7.1552328e-03 
-1.3877428e-03 0.0000000e+00 -7.1552328e-03 
-1.6533686e-03 0.0000000e+00 -2.8560085e-02 
-1.5378903e-03 0.0000000e+00 -7.9913354e-03 
-1.6533686e-03 0.0000000e+00 -2.8560085e-02 
-1.5378903e-03 0.0000000e+00 -7.9913354e-03 
-1.6831637e-03 0.0000000e+00 -8.8162958e-03 
-1.6408929e-03 0.0000000e+00 -2.9139775e-02 
-1.6831637e-03 0.0000000e+00 -8.8162958e-03 
-1.6408929e-03 0.0000000e+00 -2.9139775e-02 
-1.8236162e-03 0.0000000e+00 -9.6300971e-03 
-1.6259223e-03 0.0000000e+00 -2.9707209e-02 
-1.8236162e-03 0.0000000e+00 -9.6300971e-03 
-1.6259223e-03 0.0000000e+00 -2.9707209e-02 
-1.9592996e-03 0.0000000e+00 -1.0432708e-02 
-1.9592996e-03 0.0000000e+00 -1.0432708e-02 
-1.6085143e-03 0.0000000e+00 -3.0262382e-02 
-1.6085143e-03 0.0000000e+00 -3.0262382e-02 
-2.0902678e-03 0.0000000e+00 -1.1224112e-02 
-2.0902678e-03 0.0000000e+00 -1.1224112e-02 
-1.5887269e-03 0.0000000e+00 -3.0805277e-02 
-1.5887269e-03 0.0000000e+00 -3.0805277e-02 
-2.2165728e-03 0.0000000e+00 -1.2004282e-02 
-2.2165728e-03 0.0000000e+00 -1.2004282e-02 
-1.5666177e-03 0.0000000e+00 -3.1335884e-02 
-1.5666177e-03 0.0000000e+00 -3.1335884e-02 
-2.3382689e-03 0.0000000e+00 -1.2773201e-02 
-2.3382689e-03 0.0000000e+00 -1.2773201e-02 
-1.5422444e-03 0.0000000e+00 -3.1854196e-02 
-1.5422444e-03 0.0000000e+00 -3.1854196e-02 
-2.4554082e-03 0.0000000e+00 -1.3530843e-02 
-2.4554082e-03 0.0000000e+00 -1.3530843e-02 
-1.5156649e-03 0.0000000e+00 -3.2360198e-02 
-1.5156649e-03 0.0000000e+00 -3.2360198e-02 
-2.5680447e-03 0.0000000e+00 -1.4277187e-02 
-2.5680447e-03 0.0000000e+00 -1.4277187e-02 
-1.4869373e-03 0.0000000e+00 -3.2853880e-02 
-1.4869373e-03 0.0000000e+00 -3.2853880e-02 
-2.6762323e-03 0.0000000e+00 -1.5012218e-02 
-2.6762323e-03 0.0000000e+00 -1.5012218e-02 
-1.4561194e-03 0.0000000e+00 -3.3335236e-02 
-1.4561194e-03 0.0000000e+00 -3.3335236e-02 
-2.7800235e-03 0.0000000e+00 -1.5735907e-02 
-2.7800235e-03 0.0000000e+00 -1.5735907e-02 
-1.4232691e-03 0.0000000e+00 -3.3804252e-02 
-2.8794730e-03 0.0000000e+00 -1.6448240e-02 
-1.4232691e-03 0.0000000e+00 -3.3804252e-02 
-2.8794730e-03 0.0000000e+00 -1.6448240e-02 
-1.3884447e-03 0.0000000e+00 -3.4260919e-02 
-2.9746336e-03 0.0000000e+00 -1.7149191e-02 
-1.3884447e-03 0.0000000e+00 -3.4260919e-02 
-2.9746336e-03 0.0000000e+00 -1.7149191e-02 
-3.0655600e-03 0.0000000e+00 -1.7838744e-02 
-1.3517041e-03 0.0000000e+00 -3.4705231e-02 
-3.0655600e-03 0.0000000e+00 -1.7838744e-02 
-1.3517041e-03 0.0000000e+00 -3.4705231e-02 
-3.1523055e-03 0.0000000e+00 -1.8516875e-02 
-3.1523055e-03 0.0000000e+00 -1.8516875e-02 
-1.3131054e-03 0.0000000e+00 -3.5137179e-02 
-1.3131054e-03 0.0000000e+00 -3.5137179e-02 
-3.2349242e-03 0.0000000e+00 -1.9183567e-02 
-3.2349242e-03 0.0000000e+00 -1.9183567e-02 
-1.2727070e-03 0.0000000e+00 -3.5556749e-02 
-1.2727070e-03 0.0000000e+00 -3.5556749e-02 
-3.3134709e-03 0.0000000e+00 -1.9838804e-02 
-3.3134709e-03 0.0000000e+00 -1.9838804e-02 
-1.2305668e-03 0.0000000e+00 -3.5963938e-02 
-1.2305668e-03 0.0000000e+00 -3.5963938e-02 
-3.3879990e-03 0.0000000e+00 -2.0482558e-02 
-3.3879990e-03 0.0000000e+00 -2.0482558e-02 
-1.1867432e-03 0.0000000e+00 -3.6358737e-02 
-1.1867432e-03 0.0000000e+00 -3.6358737e-02 
-3.4585634e-03 0.0000000e+00 -2.1114821e-02 
-3.4585634e-03 0.0000000e+00 -2.1114821e-02 
-1.1412947e-03 0.0000000e+00 -3.6741136e-02 
-1.1412947e-03 0.0000000e+00 -3.6741136e-02 
-3.5252180e-03 0.0000000e+00 -2.1735565e-02 
-3.5252180e-03 0.0000000e+00 -2.1735565e-02 
-1.0942792e-03 0.0000000e+00 -3.7111130e-02 
-1.0942792e-03 0.0000000e+00 -3.7111130e-02 
-3.5880178e-03 0.0000000e+00 -2.2344778e-02 
-3.5880178e-03 0.0000000e+00 -2.2344778e-02 
-1.0457552e-03 0.0000000e+00 -3.7468711e-02 
-1.0457552e-03 0.0000000e+00 -3.7468711e-02 
-3.6470169e-03 0.0000000e+00 -2.2942437e-02 
-3.6470169e-03 0.0000000e+00 -2.2942437e-02 
-9.9578146e-04 0.0000000e+00 -3.7813870e-02 
-9.9578146e-04 0.0000000e+00 -3.7813870e-02 
-3.7022700e-03 0.0000000e+00 -2.3528525e-02 
-3.7022700e-03 0.0000000e+00 -2.3528525e-02 
-9.4441588e-04 0.0000000e+00 -3.8146604e-02 
-9.4441588e-04 0.0000000e+00 -3.8146604e-02 
-3.7538324e-03 0.0000000e+00 -2.4103031e-02 
-3.7538324e-03 0.0000000e+00 -2.4103031e-02 
-8.9171711e-04 0.0000000e+00 -3.8466905e-02 
-8.9171711e-04 0.0000000e+00 -3.8466905e-02 
-3.8017582e-03 0.0000000e+00 -2.4665928e-02 
-3.8017582e-03 0.0000000e+00 -2.4665928e-02 
-8.3774388e-04 0.0000000e+00 -3.8774765e-02 
-8.3774388e-04 0.0000000e+00 -3.8774765e-02 
-3.8461029e-03 0.0000000e+00 -2.5217207e-02 
-3.8461029e-03 0.0000000e+00 -2.5217207e-02 
-7.8255428e-04 0.0000000e+00 -3.9070180e-02 
-3.8869210e-03 0.0000000e+00 -2.5756845e-02 
-7.8255428e-04 0.0000000e+00 -3.9070180e-02 
-3.8869210e-03 0.0000000e+00 -2.5756845e-02 
-3.9242680e-03 0.0000000e+00 -2.6284831e-02 
-7.2620703e-04 0.0000000e+00 -3.9353145e-02 
-3.9242680e-03 0.0000000e+00 -2.6284831e-02 
-7.2620703e-04 0.0000000e+00 -3.9353145e-02 
-3.9581986e-03 0.0000000e+00 -2.6801144e-02 
-6.6876092e-04 0.0000000e+00 -3.9623653e-02 
-3.9581986e-03 0.0000000e+00 -2.6801144e-02 
-6.6876092e-04 0.0000000e+00 -3.9623653e-02 
-3.9887682e-03 0.0000000e+00 -2.7305768e-02 
-3.9887682e-03 0.0000000e+00 -2.7305768e-02 
-6.1027412e-04 0.0000000e+00 -3.9881700e-02 
-6.1027412e-04 0.0000000e+00 -3.9881700e-02 
-4.0160324e-03 0.0000000e+00 -2.7798693e-02 
-4.0160324e-03 0.0000000e+00 -2.7798693e-02 
-5.5080567e-04 0.0000000e+00 -4.0127281e-02 
-5.5080567e-04 0.0000000e+00 -4.0127281e-02 
-4.0400460e-03 0.0000000e+00 -2.8279896e-02 
-4.0400460e-03 0.0000000e+00 -2.8279896e-02 
-4.9041376e-04 0.0000000e+00 -4.0360392e-02 
-4.9041376e-04 0.0000000e+00 -4.0360392e-02 
-4.0608650e-03 0.0000000e+00 -2.8749370e-02 
-4.0608650e-03 0.0000000e+00 -2.8749370e-02 
-4.2915725e-04 0.0000000e+00 -4.0581028e-02 
-4.2915725e-04 0.0000000e+00 -4.0581028e-02 
-4.0785444e-03 0.0000000e+00 -2.9207091e-02 
-4.0785444e-03 0.0000000e+00 -2.9207091e-02 
-3.6709506e-04 0.0000000e+00 -4.0789185e-02 
-3.6709506e-04 0.0000000e+00 -4.0789185e-02 
-4.0931403e-03 0.0000000e+00 -2.9653052e-02 
-4.0931403e-03 0.0000000e+00 -2.9653052e-02 
-3.0428541e-04 0.0000000e+00 -4.0984861e-02 
-3.0428541e-04 0.0000000e+00 -4.0984861e-02 
-4.1047079e-03 0.0000000e+00 -3.0087233e-02 
-4.1047079e-03 0.0000000e+00 -3.0087233e-02 
-2.4078724e-04 0.0000000e+00 -4.1168051e-02 
-2.4078724e-04 0.0000000e+00 -4.1168051e-02 
-4.1133031e-03 0.0000000e+00 -3.0509624e-02 
-4.1133031e-03 0.0000000e+00 -3.0509624e-02 
-1.7665952e-04 0.0000000e+00 -4.1338752e-02 
-1.7665952e-04 0.0000000e+00 -4.1338752e-02 
-4.1189817e-03 0.0000000e+00 -3.0920207e-02 
-4.1189817e-03 0.0000000e+00 -3.0920207e-02 
-1.1196048e-04 0.0000000e+00 -4.1496961e-02 
-1.1196048e-04 0.0000000e+00 -4.1496961e-02 
-4.1217994e-03 0.0000000e+00 -3.1318970e-02 
-4.1217994e-03 0.0000000e+00 -3.1318970e-02 
-4.6749131e-05 0.0000000e+00 -4.1642677e-02 
-4.6749131e-05 0.0000000e+00 -4.1642677e-02 
-4.1218125e-03 0.0000000e+00 -3.1705904e-02 
-4.1218125e-03 0.0000000e+00 -3.1705904e-02 
1.8915525e-05 0.0000000e+00 -4.1775896e-02 
1.8915525e-05 0.0000000e+00 -4.1775896e-02 
-4.1190765e-03 0.0000000e+00 -3.2080988e-02 
-4.1190765e-03 0.0000000e+00 -3.2080988e-02 
8.4975219e-05 0.0000000e+00 -4.1896617e-02 
8.4975219e-05 0.0000000e+00 -4.1896617e-02 
-4.1136478e-03 0.0000000e+00 -3.2444216e-02 
-4.1136478e-03 0.0000000e+00 -3.2444216e-02 
1.5137092e-04 0.0000000e+00 -4.2004838e-02 
1.5137092e-04 0.0000000e+00 -4.2004838e-02 
-4.1056278e-03 0.0000000e+00 -3.2793892e-02 
-4.1056278e-03 0.0000000e+00 -3.2793892e-02 
2.1824280e-04 0.0000000e+00 -4.2100824e-02 
2.1824280e-04 0.0000000e+00 -4.2100824e-02 
-4.0926338e-03 0.0000000e+00 -3.3197968e-02 
-4.0926338e-03 0.0000000e+00 -3.3197968e-02 
2.9877482e-04 0.0000000e+00 -4.2199405e-02 
2.9877482e-04 0.0000000e+00 -4.2199405e-02 
-4.0723160e-03 0.0000000e+00 -3.3660460e-02 
-4.0723160e-03 0.0000000e+00 -3.3660460e-02 
3.9568832e-04 0.0000000e+00 -4.2293793e-02 
3.9568832e-04 0.0000000e+00 -4.2293793e-02 
-4.0413510e-03 0.0000000e+00 -3.4183154e-02 
-4.0413510e-03 0.0000000e+00 -3.4183154e-02 
5.1096074e-04 0.0000000e+00 -4.2372016e-02 
5.1096074e-04 0.0000000e+00 -4.2372016e-02 
-4.0012517e-03 0.0000000e+00 -3.4695748e-02 
-4.0012517e-03 0.0000000e+00 -3.4695748e-02 
6.2612039e-04 0.0000000e+00 -4.2413437e-02 
6.2612039e-04 0.0000000e+00 -4.2413437e-02 
-3.9538180e-03 0.0000000e+00 -3.5169093e-02 
-3.9538180e-03 0.0000000e+00 -3.5169093e-02 
7.4087039e-04 0.0000000e+00 -4.2418059e-02 
7.4087039e-04 0.0000000e+00 -4.2418059e-02 
-3.8993866e-03 0.0000000e+00 -3.5603128e-02 
-3.8993866e-03 0.0000000e+00 -3.5603128e-02 
8.5491389e-04 0.0000000e+00 -4.2385885e-02 
8.5491389e-04 0.0000000e+00 -4.2385885e-02 
-3.8382942e-03 0.0000000e+00 -3.5997794e-02 
-3.8382942e-03 0.0000000e+00 -3.5997794e-02 
9.6795431e-04 0.0000000e+00 -4.2316924e-02 
9.6795431e-04 0.0000000e+00 -4.2316924e-02 
-3.7708787e-03 0.0000000e+00 -3.6353036e-02 
-3.7708787e-03 0.0000000e+00 -3.6353036e-02 
1.0796944e-03 0.0000000e+00 -4.2211184e-02 
1.0796944e-03 0.0000000e+00 -4.2211184e-02 