# vtk DataFile Version 4.0
vtk output
ASCII
DATASET UNSTRUCTURED_GRID
POINTS 824 float
-6.4148600e-05 1.0000000e-02 -4.4525366e-03 
-1.0680180e-04 1.0000000e-02 -2.8088474e-03 
3.4513260e-04 1.0000000e-02 -6.0450544e-03 
1.3803532e-03 1.0000000e-02 -7.3230534e-03 
6.5829700e-05 1.0000000e-02 -1.1736922e-03 
2.7142144e-03 1.0000000e-02 -8.2851896e-03 
5.0392030e-04 1.0000000e-02 6.5784910e-04 
4.1780764e-03 1.0000000e-02 -9.0342357e-03 
1.1628646e-03 1.0000000e-02 2.4220088e-03 
5.7070961e-03 1.0000000e-02 -9.6390187e-03 
2.0046218e-03 1.0000000e-02 4.1066196e-03 
7.2731595e-03 1.0000000e-02 -1.0140047e-02 
-6.4148600e-05 0.0000000e+00 -4.4525366e-03 
-1.0680180e-04 0.0000000e+00 -2.8088474e-03 
3.4513260e-04 0.0000000e+00 -6.0450544e-03 
1.3803532e-03 0.0000000e+00 -7.3230534e-03 
6.5829700e-05 0.0000000e+00 -1.1736922e-03 
2.9952540e-03 1.0000000e-02 5.7082181e-03 
8.8622628e-03 1.0000000e-02 -1.0562311e-02 
2.7142144e-03 0.0000000e+00 -8.2851896e-03 
5.0392030e-04 0.0000000e+00 6.5784910e-04 
4.1780764e-03 0.0000000e+00 -9.0342357e-03 
1.1628646e-03 0.0000000e+00 2.4220088e-03 
1.0466628e-02 1.0000000e-02 -1.0922252e-02 
4.1067238e-03 1.0000000e-02 7.2284501e-03 
5.7070961e-03 0.0000000e+00 -9.6390187e-03 
2.0046218e-03 0.0000000e+00 4.1066196e-03 
7.2731595e-03 0.0000000e+00 -1.0140047e-02 
1.2081579e-02 1.0000000e-02 -1.1231240e-02 
5.3166988e-03 1.0000000e-02 8.6715129e-03 
2.9952540e-03 0.0000000e+00 5.7082181e-03 
8.8622628e-03 0.0000000e+00 -1.0562311e-02 
1.3704120e-02 1.0000000e-02 -1.1497501e-02 
1.0466628e-02 0.0000000e+00 -1.0922252e-02 
4.1067238e-03 0.0000000e+00 7.2284501e-03 
6.6076374e-03 1.0000000e-02 1.0042624e-02 
1.5332244e-02 1.0000000e-02 -1.1727173e-02 
1.2081579e-02 0.0000000e+00 -1.1231240e-02 
5.3166988e-03 0.0000000e+00 8.6715129e-03 
7.9658343e-03 1.0000000e-02 1.1347144e-02 
1.3704120e-02 0.0000000e+00 -1.1497501e-02 
1.6964543e-02 1.0000000e-02 -1.1925002e-02 
6.6076374e-03 0.0000000e+00 1.0042624e-02 
9.3804686e-03 1.0000000e-02 1.2590236e-02 
1.5332244e-02 0.0000000e+00 -1.1727173e-02 
1.8600004e-02 1.0000000e-02 -1.2094716e-02 
7.9658343e-03 0.0000000e+00 1.1347144e-02 
1.6964543e-02 0.0000000e+00 -1.1925002e-02 
1.0843002e-02 1.0000000e-02 1.3776601e-02 
2.0237876e-02 1.0000000e-02 -1.2239318e-02 
9.3804686e-03 0.0000000e+00 1.2590236e-02 
1.8600004e-02 0.0000000e+00 -1.2094716e-02 
1.2346566e-02 1.0000000e-02 1.4910517e-02 
2.1877591e-02 1.0000000e-02 -1.2361246e-02 
1.0843002e-02 0.0000000e+00 1.3776601e-02 
2.0237876e-02 0.0000000e+00 -1.2239318e-02 
1.3885623e-02 1.0000000e-02 1.5995768e-02 
2.3518711e-02 1.0000000e-02 -1.2462540e-02 
1.2346566e-02 0.0000000e+00 1.4910517e-02 
2.1877591e-02 0.0000000e+00 -1.2361246e-02 
2.5160890e-02 1.0000000e-02 -1.2544903e-02 
1.5455654e-02 1.0000000e-02 1.7035707e-02 
1.3885623e-02 0.0000000e+00 1.5995768e-02 
2.3518711e-02 0.0000000e+00 -1.2462540e-02 
2.6803852e-02 1.0000000e-02 -1.2609772e-02 
1.7052912e-02 1.0000000e-02 1.8033321e-02 
2.5160890e-02 0.0000000e+00 -1.2544903e-02 
1.5455654e-02 0.0000000e+00 1.7035707e-02 
2.8447376e-02 1.0000000e-02 -1.2658389e-02 
2.6803852e-02 0.0000000e+00 -1.2609772e-02 
1.7052912e-02 0.0000000e+00 1.8033321e-02 
1.8674284e-02 1.0000000e-02 1.8991246e-02 
3.0091279e-02 1.0000000e-02 -1.2691814e-02 
2.8447376e-02 0.0000000e+00 -1.2658389e-02 
1.8674284e-02 0.0000000e+00 1.8991246e-02 
2.0317149e-02 1.0000000e-02 1.9911822e-02 
3.0091279e-02 0.0000000e+00 -1.2691814e-02 
3.1735410e-02 1.0000000e-02 -1.2710971e-02 
2.0317149e-02 0.0000000e+00 1.9911822e-02 
2.1979295e-02 1.0000000e-02 2.0797113e-02 
3.1735410e-02 0.0000000e+00 -1.2710971e-02 
3.3379643e-02 1.0000000e-02 -1.2716676e-02 
2.1979295e-02 0.0000000e+00 2.0797113e-02 
2.3658832e-02 1.0000000e-02 2.1648949e-02 
3.3379643e-02 0.0000000e+00 -1.2716676e-02 
3.5023871e-02 1.0000000e-02 -1.2709629e-02 
2.3658832e-02 0.0000000e+00 2.1648949e-02 
2.5354100e-02 1.0000000e-02 2.2469029e-02 
3.5023871e-02 0.0000000e+00 -1.2709629e-02 
3.6668001e-02 1.0000000e-02 -1.2690457e-02 
2.5354100e-02 0.0000000e+00 2.2469029e-02 
2.7063712e-02 1.0000000e-02 2.3258772e-02 
3.6668001e-02 0.0000000e+00 -1.2690457e-02 
3.8312016e-02 1.0000000e-02 -1.2663038e-02 
2.7063712e-02 0.0000000e+00 2.3258772e-02 
3.8312016e-02 0.0000000e+00 -1.2663038e-02 
2.8786417e-02 1.0000000e-02 2.4019532e-02 
3.9956032e-02 1.0000000e-02 -1.2635752e-02 
2.8786417e-02 0.0000000e+00 2.4019532e-02 
3.9956032e-02 0.0000000e+00 -1.2635752e-02 
3.0521135e-02 1.0000000e-02 2.4752486e-02 
4.1600048e-02 1.0000000e-02 -1.2608467e-02 
3.0521135e-02 0.0000000e+00 2.4752486e-02 
4.1600048e-02 0.0000000e+00 -1.2608467e-02 
3.2266919e-02 1.0000000e-02 2.5458676e-02 
4.3299814e-02 1.0000000e-02 -1.2580255e-02 
3.2266919e-02 0.0000000e+00 2.5458676e-02 
4.3299814e-02 0.0000000e+00 -1.2580255e-02 
3.4022902e-02 1.0000000e-02 2.6139111e-02 
4.5339533e-02 1.0000000e-02 -1.2546402e-02 
3.4022902e-02 0.0000000e+00 2.6139111e-02 
4.5339533e-02 0.0000000e+00 -1.2546402e-02 
3.5788340e-02 1.0000000e-02 2.6794623e-02 
4.7787196e-02 1.0000000e-02 -1.2505778e-02 
3.5788340e-02 0.0000000e+00 2.6794623e-02 
3.7562554e-02 1.0000000e-02 2.7425996e-02 
4.7787196e-02 0.0000000e+00 -1.2505778e-02 
3.7562554e-02 0.0000000e+00 2.7425996e-02 
3.9344928e-02 1.0000000e-02 2.8033950e-02 
5.0379113e-02 1.0000000e-02 -1.2462760e-02 
3.9344928e-02 0.0000000e+00 2.8033950e-02 
5.0379113e-02 0.0000000e+00 -1.2462760e-02 
4.1134916e-02 1.0000000e-02 2.8619109e-02 
5.2971029e-02 1.0000000e-02 -1.2419741e-02 
4.1134916e-02 0.0000000e+00 2.8619109e-02 
5.2971029e-02 0.0000000e+00 -1.2419741e-02 
4.2932026e-02 1.0000000e-02 2.9182016e-02 
4.2932026e-02 0.0000000e+00 2.9182016e-02 
5.5562946e-02 1.0000000e-02 -1.2376723e-02 
4.5339682e-02 1.0000000e-02 2.9899231e-02 
5.5562946e-02 0.0000000e+00 -1.2376723e-02 
4.5339682e-02 0.0000000e+00 2.9899231e-02 
5.8154863e-02 1.0000000e-02 -1.2333705e-02 
4.7758221e-02 1.0000000e-02 3.0578844e-02 
5.8154863e-02 0.0000000e+00 -1.2333705e-02 
4.7758221e-02 0.0000000e+00 3.0578844e-02 
6.0746779e-02 1.0000000e-02 -1.2290686e-02 
5.0186760e-02 1.0000000e-02 3.1221807e-02 
6.0746779e-02 0.0000000e+00 -1.2290686e-02 
5.0186760e-02 0.0000000e+00 3.1221807e-02 
6.3338696e-02 1.0000000e-02 -1.2247668e-02 
5.2624513e-02 1.0000000e-02 3.1828903e-02 
6.3338696e-02 0.0000000e+00 -1.2247668e-02 
5.2624513e-02 0.0000000e+00 3.1828903e-02 
5.5070762e-02 1.0000000e-02 3.2400804e-02 
6.5930613e-02 1.0000000e-02 -1.2204650e-02 
5.5070762e-02 0.0000000e+00 3.2400804e-02 
6.5930613e-02 0.0000000e+00 -1.2204650e-02 
5.7524847e-02 1.0000000e-02 3.2938082e-02 
6.8522529e-02 1.0000000e-02 -1.2161631e-02 
5.7524847e-02 0.0000000e+00 3.2938082e-02 
6.8522529e-02 0.0000000e+00 -1.2161631e-02 
5.9986169e-02 1.0000000e-02 3.3441170e-02 
7.1114446e-02 1.0000000e-02 -1.2118613e-02 
5.9986169e-02 0.0000000e+00 3.3441170e-02 
7.1114446e-02 0.0000000e+00 -1.2118613e-02 
6.2454163e-02 1.0000000e-02 3.3910436e-02 
6.2454163e-02 0.0000000e+00 3.3910436e-02 
7.3706362e-02 1.0000000e-02 -1.2075595e-02 
7.3706362e-02 0.0000000e+00 -1.2075595e-02 
6.4928303e-02 1.0000000e-02 3.4346139e-02 
6.4928303e-02 0.0000000e+00 3.4346139e-02 
7.6298279e-02 1.0000000e-02 -1.2032577e-02 
7.6298279e-02 0.0000000e+00 -1.2032577e-02 
6.7408092e-02 1.0000000e-02 3.4748446e-02 
6.7408092e-02 0.0000000e+00 3.4748446e-02 
7.8890196e-02 1.0000000e-02 -1.1989558e-02 
7.8890196e-02 0.0000000e+00 -1.1989558e-02 
6.9893057e-02 1.0000000e-02 3.5117436e-02 
6.9893057e-02 0.0000000e+00 3.5117436e-02 
8.1482112e-02 1.0000000e-02 -1.1946540e-02 
8.1482112e-02 0.0000000e+00 -1.1946540e-02 
7.2382742e-02 1.0000000e-02 3.5453098e-02 
7.2382742e-02 0.0000000e+00 3.5453098e-02 
8.4074029e-02 1.0000000e-02 -1.1903522e-02 
7.4876707e-02 1.0000000e-02 3.5755332e-02 
8.4074029e-02 0.0000000e+00 -1.1903522e-02 
7.4876707e-02 0.0000000e+00 3.5755332e-02 
8.6665946e-02 1.0000000e-02 -1.1860503e-02 
7.7374516e-02 1.0000000e-02 3.6023948e-02 
8.6665946e-02 0.0000000e+00 -1.1860503e-02 
7.7374516e-02 0.0000000e+00 3.6023948e-02 
8.9257862e-02 1.0000000e-02 -1.1817485e-02 
7.9875738e-02 1.0000000e-02 3.6258665e-02 
8.9257862e-02 0.0000000e+00 -1.1817485e-02 
7.9875738e-02 0.0000000e+00 3.6258665e-02 
8.2379940e-02 1.0000000e-02 3.6459105e-02 
9.1849779e-02 1.0000000e-02 -1.1774467e-02 
8.2379940e-02 0.0000000e+00 3.6459105e-02 
9.1849779e-02 0.0000000e+00 -1.1774467e-02 
8.4886681e-02 1.0000000e-02 3.6624786e-02 
9.4441696e-02 1.0000000e-02 -1.1731448e-02 
8.4886681e-02 0.0000000e+00 3.6624786e-02 
9.4441696e-02 0.0000000e+00 -1.1731448e-02 
8.7395510e-02 1.0000000e-02 3.6755108e-02 
8.7395510e-02 0.0000000e+00 3.6755108e-02 
9.7033612e-02 1.0000000e-02 -1.1688430e-02 
9.7033612e-02 0.0000000e+00 -1.1688430e-02 
8.9905951e-02 1.0000000e-02 3.6849401e-02 
8.9905951e-02 0.0000000e+00 3.6849401e-02 
9.9625529e-02 1.0000000e-02 -1.1645412e-02 
9.9625529e-02 0.0000000e+00 -1.1645412e-02 
9.2417505e-02 1.0000000e-02 3.6906832e-02 
9.2417505e-02 0.0000000e+00 3.6906832e-02 
1.0221745e-01 1.0000000e-02 -1.1602393e-02 
1.0221745e-01 0.0000000e+00 -1.1602393e-02 
9.4929640e-02 1.0000000e-02 3.6926425e-02 
9.4929640e-02 0.0000000e+00 3.6926425e-02 
1.0480936e-01 1.0000000e-02 -1.1559375e-02 
1.0480936e-01 0.0000000e+00 -1.1559375e-02 
9.7441776e-02 1.0000000e-02 3.6907077e-02 
9.7441776e-02 0.0000000e+00 3.6907077e-02 
1.0740128e-01 1.0000000e-02 -1.1516357e-02 
1.0740128e-01 0.0000000e+00 -1.1516357e-02 
9.9953281e-02 1.0000000e-02 3.6847529e-02 
9.9953281e-02 0.0000000e+00 3.6847529e-02 
1.0999320e-01 1.0000000e-02 -1.1473339e-02 
1.0246345e-01 1.0000000e-02 3.6746314e-02 
1.0999320e-01 0.0000000e+00 -1.1473339e-02 
1.0246345e-01 0.0000000e+00 3.6746314e-02 
1.0497150e-01 1.0000000e-02 3.6601738e-02 
1.1258511e-01 1.0000000e-02 -1.1430320e-02 
1.0497150e-01 0.0000000e+00 3.6601738e-02 
1.1258511e-01 0.0000000e+00 -1.1430320e-02 
1.0747666e-01 1.0000000e-02 3.6413638e-02 
1.1517703e-01 1.0000000e-02 -1.1387302e-02 
1.0747666e-01 0.0000000e+00 3.6413638e-02 
[...]
POINT_DATA 824
FIELD FieldData 2
DISPLACEMENT 3 824  float
0.0000000e+00 0.0000000e+00 0.0000000e+00 
0.0000000e+00 0.0000000e+00 0.0000000e+00 
0.0000000e+00 0.0000000e+00 0.0000000e+00 
0.0000000e+00 0.0000000e+00 0.0000000e+00 
0.0000000e+00 0.0000000e+00 0.0000000e+00 
0.0000000e+00 0.0000000e+00 0.0000000e+00 
0.0000000e+00 0.0000000e+00 0.0000000e+00 
0.0000000e+00 0.0000000e+00 0.0000000e+00 
0.0000000e+00 0.0000000e+00 0.0000000e+00 
0.0000000e+00 0.0000000e+00 0.0000000e+00 
0.0000000e+00 0.0000000e+00 0.0000000e+00 
0.0000000e+00 0.0000000e+00 0.0000000e+00 
0.0000000e+00 0.0000000e+00 0.0000000e+00 
0.0000000e+00 0.0000000e+00 0.0000000e+00 
0.0000000e+00 0.0000000e+00 0.0000000e+00 
0.0000000e+00 0.0000000e+00 0.0000000e+00 
0.0000000e+00 0.0000000e+00 0.0000000e+00 
0.0000000e+00 0.0000000e+00 0.0000000e+00 
0.0000000e+00 0.0000000e+00 0.0000000e+00 
0.0000000e+00 0.0000000e+00 0.0000000e+00 
0.0000000e+00 0.0000000e+00 0.0000000e+00 
0.0000000e+00 0.0000000e+00 0.0000000e+00 
0.0000000e+00 0.0000000e+00 0.0000000e+00 
0.0000000e+00 0.0000000e+00 0.0000000e+00 
0.0000000e+00 0.0000000e+00 0.0000000e+00 
0.0000000e+00 0.0000000e+00 0.0000000e+00 
0.0000000e+00 0.0000000e+00 0.0000000e+00 
0.0000000e+00 0.0000000e+00 0.0000000e+00 
0.0000000e+00 0.0000000e+00 0.0000000e+00 
0.0000000e+00 0.0000000e+00 0.0000000e+00 
0.0000000e+00 0.0000000e+00 0.0000000e+00 
0.0000000e+00 0.0000000e+00 0.0000000e+00 
0.0000000e+00 0.0000000e+00 0.0000000e+00 
0.0000000e+00 0.0000000e+00 0.0000000e+00 
0.0000000e+00 0.0000000e+00 0.0000000e+00 
0.0000000e+00 0.0000000e+00 0.0000000e+00 
0.0000000e+00 0.0000000e+00 0.0000000e+00 
0.0000000e+00 0.0000000e+00 0.0000000e+00 
0.0000000e+00 0.0000000e+00 0.0000000e+00 
0.0000000e+00 0.0000000e+00 0.0000000e+00 
0.0000000e+00 0.0000000e+00 0.0000000e+00 
0.0000000e+00 0.0000000e+00 0.0000000e+00 
0.0000000e+00 0.0000000e+00 0.0000000e+00 
0.0000000e+00 0.0000000e+00 0.0000000e+00 
0.0000000e+00 0.0000000e+00 0.0000000e+00 
0.0000000e+00 0.0000000e+00 0.0000000e+00 
0.0000000e+00 0.0000000e+00 0.0000000e+00 
0.0000000e+00 0.0000000e+00 0.0000000e+00 
0.0000000e+00 0.0000000e+00 0.0000000e+00 
0.0000000e+00 0.0000000e+00 0.0000000e+00 
0.0000000e+00 0.0000000e+00 0.0000000e+00 
0.0000000e+00 0.0000000e+00 0.0000000e+00 
0.0000000e+00 0.0000000e+00 0.0000000e+00 
0.0000000e+00 0.0000000e+00 0.0000000e+00 
0.0000000e+00 0.0000000e+00 0.0000000e+00 
0.0000000e+00 0.0000000e+00 0.0000000e+00 
0.0000000e+00 0.0000000e+00 0.0000000e+00 
0.0000000e+00 0.0000000e+00 0.0000000e+00 
0.0000000e+00 0.0000000e+00 0.0000000e+00 
0.0000000e+00 0.0000000e+00 0.0000000e+00 
0.0000000e+00 0.0000000e+00 0.0000000e+00 
0.0000000e+00 0.0000000e+00 0.0000000e+00 
0.0000000e+00 0.0000000e+00 0.0000000e+00 
0.0000000e+00 0.0000000e+00 0.0000000e+00 
0.0000000e+00 0.0000000e+00 0.0000000e+00 
0.0000000e+00 0.0000000e+00 0.0000000e+00 
0.0000000e+00 0.0000000e+00 0.0000000e+00 
0.0000000e+00 0.0000000e+00 0.0000000e+00 
0.0000000e+00 0.0000000e+00 0.0000000e+00 
0.0000000e+00 0.0000000e+00 0.0000000e+00 
0.0000000e+00 0.0000000e+00 0.0000000e+00 
0.0000000e+00 0.0000000e+00 0.0000000e+00 
0.0000000e+00 0.0000000e+00 0.0000000e+00 
0.0000000e+00 0.0000000e+00 0.0000000e+00 
0.0000000e+00 0.0000000e+00 0.0000000e+00 
0.0000000e+00 0.0000000e+00 0.0000000e+00 
0.0000000e+00 0.0000000e+00 0.0000000e+00 
0.0000000e+00 0.0000000e+00 0.0000000e+00 
0.0000000e+00 0.0000000e+00 0.0000000e+00 
0.0000000e+00 0.0000000e+00 0.0000000e+00 
0.0000000e+00 0.0000000e+00 0.0000000e+00 
0.0000000e+00 0.0000000e+00 0.0000000e+00 
0.0000000e+00 0.0000000e+00 0.0000000e+00 
0.0000000e+00 0.0000000e+00 0.0000000e+00 
0.0000000e+00 0.0000000e+00 0.0000000e+00 
0.0000000e+00 0.0000000e+00 0.0000000e+00 
0.0000000e+00 0.0000000e+00 0.0000000e+00 
0.0000000e+00 0.0000000e+00 0.0000000e+00 
0.0000000e+00 0.0000000e+00 0.0000000e+00 
0.0000000e+00 0.0000000e+00 0.0000000e+00 
0.0000000e+00 0.0000000e+00 0.0000000e+00 
0.0000000e+00 0.0000000e+00 0.0000000e+00 
0.0000000e+00 0.0000000e+00 0.0000000e+00 
0.0000000e+00 0.0000000e+00 0.0000000e+00 
0.0000000e+00 0.0000000e+00 0.0000000e+00 
0.0000000e+00 0.0000000e+00 0.0000000e+00 
0.0000000e+00 0.0000000e+00 0.0000000e+00 
-7.3044558e-06 0.0000000e+00 1.4819474e-04 
0.0000000e+00 0.0000000e+00 0.0000000e+00 
-7.3044558e-06 0.0000000e+00 1.4819474e-04 
0.0000000e+00 0.0000000e+00 0.0000000e+00 
-1.4434214e-05 0.0000000e+00 2.9464789e-04 
0.0000000e+00 0.0000000e+00 0.0000000e+00 
-1.4434214e-05 0.0000000e+00 2.9464789e-04 
0.0000000e+00 0.0000000e+00 0.0000000e+00 
-2.1624622e-05 0.0000000e+00 4.4424115e-04 
0.0000000e+00 0.0000000e+00 0.0000000e+00 
-2.1624622e-05 0.0000000e+00 4.4424115e-04 
0.0000000e+00 0.0000000e+00 0.0000000e+00 
-3.0014113e-05 0.0000000e+00 6.2132021e-04 
0.0000000e+00 0.0000000e+00 0.0000000e+00 
-3.0014113e-05 0.0000000e+00 6.2132021e-04 
0.0000000e+00 0.0000000e+00 0.0000000e+00 
-3.9743263e-05 0.0000000e+00 8.3032633e-04 
0.0000000e+00 0.0000000e+00 0.0000000e+00 
0.0000000e+00 0.0000000e+00 0.0000000e+00 
-3.9743263e-05 0.0000000e+00 8.3032633e-04 
0.0000000e+00 0.0000000e+00 0.0000000e+00 
4.8574456e-05 0.0000000e+00 -1.5127108e-04 
-4.9652410e-05 0.0000000e+00 1.0475330e-03 
4.8574456e-05 0.0000000e+00 -1.5127108e-04 
-4.9652410e-05 0.0000000e+00 1.0475330e-03 
9.1981837e-05 0.0000000e+00 -2.8942623e-04 
-5.9167182e-05 0.0000000e+00 1.2605449e-03 
9.1981837e-05 0.0000000e+00 -2.8942623e-04 
-5.9167182e-05 0.0000000e+00 1.2605449e-03 
1.3065819e-04 0.0000000e+00 -4.1502658e-04 
1.3065819e-04 0.0000000e+00 -4.1502658e-04 
-6.8298073e-05 0.0000000e+00 1.4694088e-03 
1.7557643e-04 0.0000000e+00 -5.6397602e-04 
-6.8298073e-05 0.0000000e+00 1.4694088e-03 
1.7557643e-04 0.0000000e+00 -5.6397602e-04 
-7.7055387e-05 0.0000000e+00 1.6741686e-03 
2.1361635e-04 0.0000000e+00 -6.9256087e-04 
-7.7055387e-05 0.0000000e+00 1.6741686e-03 
2.1361635e-04 0.0000000e+00 -6.9256087e-04 
-8.5449218e-05 0.0000000e+00 1.8748687e-03 
2.4552210e-04 0.0000000e+00 -8.0173155e-04 
-8.5449218e-05 0.0000000e+00 1.8748687e-03 
2.4552210e-04 0.0000000e+00 -8.0173155e-04 
-9.3489491e-05 0.0000000e+00 2.0715559e-03 
2.7194424e-04 0.0000000e+00 -8.9227432e-04 
-9.3489491e-05 0.0000000e+00 2.0715559e-03 
2.7194424e-04 0.0000000e+00 -8.9227432e-04 
2.9346046e-04 0.0000000e+00 -9.6484189e-04 
-1.0118582e-04 0.0000000e+00 2.2642734e-03 
2.9346046e-04 0.0000000e+00 -9.6484189e-04 
-1.0118582e-04 0.0000000e+00 2.2642734e-03 
3.1059059e-04 0.0000000e+00 -1.0199819e-03 
-1.0854757e-04 0.0000000e+00 2.4530638e-03 
3.1059059e-04 0.0000000e+00 -1.0199819e-03 
-1.0854757e-04 0.0000000e+00 2.4530638e-03 
3.2379511e-04 0.0000000e+00 -1.0580927e-03 
-1.1558390e-04 0.0000000e+00 2.6379718e-03 
3.2379511e-04 0.0000000e+00 -1.0580927e-03 
-1.1558390e-04 0.0000000e+00 2.6379718e-03 
3.3349894e-04 0.0000000e+00 -1.0794994e-03 
3.3349894e-04 0.0000000e+00 -1.0794994e-03 
-1.2230365e-04 0.0000000e+00 2.8190382e-03 
-1.2230365e-04 0.0000000e+00 2.8190382e-03 
3.4008815e-04 0.0000000e+00 -1.0844086e-03 
3.4008815e-04 0.0000000e+00 -1.0844086e-03 
-1.2871547e-04 0.0000000e+00 2.9963039e-03 
-1.2871547e-04 0.0000000e+00 2.9963039e-03 
3.4391962e-04 0.0000000e+00 -1.0729253e-03 
3.4391962e-04 0.0000000e+00 -1.0729253e-03 
-1.3482771e-04 0.0000000e+00 3.1698080e-03 
-1.3482771e-04 0.0000000e+00 3.1698080e-03 
3.4532722e-04 0.0000000e+00 -1.0450556e-03 
3.4532722e-04 0.0000000e+00 -1.0450556e-03 
-1.4064854e-04 0.0000000e+00 3.3395915e-03 
-1.4064854e-04 0.0000000e+00 3.3395915e-03 
3.4462689e-04 0.0000000e+00 -1.0007042e-03 
3.4462689e-04 0.0000000e+00 -1.0007042e-03 
-1.4618588e-04 0.0000000e+00 3.5056917e-03 
3.4212191e-04 0.0000000e+00 -9.3967378e-04 
-1.4618588e-04 0.0000000e+00 3.5056917e-03 
3.4212191e-04 0.0000000e+00 -9.3967378e-04 
-1.5144741e-04 0.0000000e+00 3.6681449e-03 
3.3810815e-04 0.0000000e+00 -8.6166315e-04 
-1.5144741e-04 0.0000000e+00 3.6681449e-03 
3.3810815e-04 0.0000000e+00 -8.6166315e-04 
-1.5644065e-04 0.0000000e+00 3.8269897e-03 
3.3287904e-04 0.0000000e+00 -7.6626381e-04 
-1.5644065e-04 0.0000000e+00 3.8269897e-03 
3.3287904e-04 0.0000000e+00 -7.6626381e-04 
3.2673050e-04 0.0000000e+00 -6.5295208e-04 
-1.6117287e-04 0.0000000e+00 3.9822607e-03 
3.2673050e-04 0.0000000e+00 -6.5295208e-04 
-1.6117287e-04 0.0000000e+00 3.9822607e-03 
3.1996623e-04 0.0000000e+00 -5.2107953e-04 
-1.6565114e-04 0.0000000e+00 4.1339920e-03 
3.1996623e-04 0.0000000e+00 -5.2107953e-04 
-1.6565114e-04 0.0000000e+00 4.1339920e-03 
3.1290327e-04 0.0000000e+00 -3.6985520e-04 
3.1290327e-04 0.0000000e+00 -3.6985520e-04 
-1.6988241e-04 0.0000000e+00 4.2822195e-03 
-1.6988241e-04 0.0000000e+00 4.2822195e-03 
3.0588119e-04 0.0000000e+00 -1.9839017e-04 
3.0588119e-04 0.0000000e+00 -1.9839017e-04 
-1.7387338e-04 0.0000000e+00 4.4269757e-03 
-1.7387338e-04 0.0000000e+00 4.4269757e-03 
2.9926477e-04 0.0000000e+00 -5.5989589e-06 
2.9926477e-04 0.0000000e+00 -5.5989589e-06 
-1.7763058e-04 0.0000000e+00 4.5682927e-03 
-1.7763058e-04 0.0000000e+00 4.5682927e-03 
2.9345498e-04 0.0000000e+00 2.0978666e-04 
2.9345498e-04 0.0000000e+00 2.0978666e-04 
-1.8116040e-04 0.0000000e+00 4.7062032e-03 
-1.8116040e-04 0.0000000e+00 4.7062032e-03 
2.8889893e-04 0.0000000e+00 4.4920924e-04 
2.8889893e-04 0.0000000e+00 4.4920924e-04 
-1.8446908e-04 0.0000000e+00 4.8407392e-03 
-1.8446908e-04 0.0000000e+00 4.8407392e-03 
2.8610068e-04 0.0000000e+00 7.1432269e-04 
2.8610068e-04 0.0000000e+00 7.1432269e-04 
-1.8756266e-04 0.0000000e+00 4.9719307e-03 
2.8563615e-04 0.0000000e+00 1.0070520e-03 
-1.8756266e-04 0.0000000e+00 4.9719307e-03 
2.8563615e-04 0.0000000e+00 1.0070520e-03 
2.8817299e-04 0.0000000e+00 1.3296025e-03 
-1.9044703e-04 0.0000000e+00 5.0998060e-03 
2.8817299e-04 0.0000000e+00 1.3296025e-03 
-1.9044703e-04 0.0000000e+00 5.0998060e-03 
2.9435765e-04 0.0000000e+00 1.6827269e-03 
-1.9312801e-04 0.0000000e+00 5.2243980e-03 
2.9435765e-04 0.0000000e+00 1.6827269e-03 
-1.9312801e-04 0.0000000e+00 5.2243980e-03 
3.0214738e-04 0.0000000e+00 2.0359350e-03 
3.0214738e-04 0.0000000e+00 2.0359350e-03 
-1.9561119e-04 0.0000000e+00 5.3457340e-03 
-1.9561119e-04 0.0000000e+00 5.3457340e-03 
3.1049594e-04 0.0000000e+00 2.3776502e-03 
3.1049594e-04 0.0000000e+00 2.3776502e-03 
-1.9790205e-04 0.0000000e+00 5.4638407e-03 
-1.9790205e-04 0.0000000e+00 5.4638407e-03 
3.1933002e-04 0.0000000e+00 2.7084459e-03 
3.1933002e-04 0.0000000e+00 2.7084459e-03 
-2.0000600e-04 0.0000000e+00 5.5787493e-03 
-2.0000600e-04 0.0000000e+00 5.5787493e-03 
3.2858835e-04 0.0000000e+00 3.0287760e-03 
3.2858835e-04 0.0000000e+00 3.0287760e-03 
-2.0192825e-04 0.0000000e+00 5.6904854e-03 
-2.0192825e-04 0.0000000e+00 5.6904854e-03 
3.3821654e-04 0.0000000e+00 3.3390343e-03 
3.3821654e-04 0.0000000e+00 3.3390343e-03 
-2.0367388e-04 0.0000000e+00 5.7990744e-03 
-2.0367388e-04 0.0000000e+00 5.7990744e-03 
3.4816617e-04 0.0000000e+00 3.6395799e-03 
3.4816617e-04 0.0000000e+00 3.6395799e-03 
-2.0524795e-04 0.0000000e+00 5.9045458e-03 
3.5839334e-04 0.0000000e+00 3.9307322e-03 
-2.0524795e-04 0.0000000e+00 5.9045458e-03 
3.5839334e-04 0.0000000e+00 3.9307322e-03 
3.6885845e-04 0.0000000e+00 4.2127880e-03 
-2.0665532e-04 0.0000000e+00 6.0069239e-03 
3.6885845e-04 0.0000000e+00 4.2127880e-03 
-2.0665532e-04 0.0000000e+00 6.0069239e-03 
3.7952504e-04 0.0000000e+00 4.4860169e-03 
-2.0790075e-04 0.0000000e+00 6.1062337e-03 
3.7952504e-04 0.0000000e+00 4.4860169e-03 
-2.0790075e-04 0.0000000e+00 6.1062337e-03 
3.9035998e-04 0.0000000e+00 4.7506704e-03 
3.9035998e-04 0.0000000e+00 4.7506704e-03 
-2.0898890e-04 0.0000000e+00 6.2025004e-03 
-2.0898890e-04 0.0000000e+00 6.2025004e-03 
4.0133267e-04 0.0000000e+00 5.0069842e-03 
4.0133267e-04 0.0000000e+00 5.0069842e-03 
-2.0992437e-04 0.0000000e+00 6.2957501e-03 
-2.0992437e-04 0.0000000e+00 6.2957501e-03 
4.1241471e-04 0.0000000e+00 5.2551750e-03 
4.1241471e-04 0.0000000e+00 5.2551750e-03 
-2.1071159e-04 0.0000000e+00 6.3860055e-03 
-2.1071159e-04 0.0000000e+00 6.3860055e-03 
4.2358003e-04 0.0000000e+00 5.4954512e-03 
4.2358003e-04 0.0000000e+00 5.4954512e-03 
-2.1135494e-04 0.0000000e+00 6.4732906e-03 
-2.1135494e-04 0.0000000e+00 6.4732906e-03 
4.3480419e-04 0.0000000e+00 5.7280046e-03 
4.3480419e-04 0.0000000e+00 5.7280046e-03 
-2.1185870e-04 0.0000000e+00 6.5576303e-03 
-2.1185870e-04 0.0000000e+00 6.5576303e-03 
4.4606470e-04 0.0000000e+00 5.9530212e-03 
4.4606470e-04 0.0000000e+00 5.9530212e-03 
-2.1222704e-04 0.0000000e+00 6.6390464e-03 
-2.1222704e-04 0.0000000e+00 6.6390464e-03 
4.5734032e-04 0.0000000e+00 6.1706735e-03 
4.5734032e-04 0.0000000e+00 6.1706735e-03 
-2.1246404e-04 0.0000000e+00 6.7175616e-03 
-2.1246404e-04 0.0000000e+00 6.7175616e-03 
4.6861147e-04 0.0000000e+00 6.3811284e-03 
4.6861147e-04 0.0000000e+00 6.3811284e-03 
-2.1257374e-04 0.0000000e+00 6.7931999e-03 
4.7985980e-04 0.0000000e+00 6.5845449e-03 
-2.1257374e-04 0.0000000e+00 6.7931999e-03 
4.7985980e-04 0.0000000e+00 6.5845449e-03 
-2.1256003e-04 0.0000000e+00 6.8659820e-03 
4.9106798e-04 0.0000000e+00 6.7810723e-03 
-2.1256003e-04 0.0000000e+00 6.8659820e-03 
4.9106798e-04 0.0000000e+00 6.7810723e-03 
5.0221999e-04 0.0000000e+00 6.9708569e-03 
-2.1242677e-04 0.0000000e+00 6.9359307e-03 
5.0221999e-04 0.0000000e+00 6.9708569e-03 
-2.1242677e-04 0.0000000e+00 6.9359307e-03 
5.1330061e-04 0.0000000e+00 7.1540357e-03 
5.1330061e-04 0.0000000e+00 7.1540357e-03 
-2.1217770e-04 0.0000000e+00 7.0030661e-03 
-2.1217770e-04 0.0000000e+00 7.0030661e-03 
5.2429578e-04 0.0000000e+00 7.3307437e-03 
5.2429578e-04 0.0000000e+00 7.3307437e-03 
-2.1181652e-04 0.0000000e+00 7.0674110e-03 
-2.1181652e-04 0.0000000e+00 7.0674110e-03 
5.3519199e-04 0.0000000e+00 7.5011068e-03 
5.3519199e-04 0.0000000e+00 7.5011068e-03 
-2.1134685e-04 0.0000000e+00 7.1289862e-03 
-2.1134685e-04 0.0000000e+00 7.1289862e-03 
5.4597694e-04 0.0000000e+00 7.6652505e-03 
5.4597694e-04 0.0000000e+00 7.6652505e-03 
-2.1077219e-04 0.0000000e+00 7.1878111e-03 
-2.1077219e-04 0.0000000e+00 7.1878111e-03 
5.5663867e-04 0.0000000e+00 7.8232914e-03 
5.5663867e-04 0.0000000e+00 7.8232914e-03 
-2.1009603e-04 0.0000000e+00 7.2439076e-03 
-2.1009603e-04 0.0000000e+00 7.2439076e-03 
5.6716623e-04 0.0000000e+00 7.9753457e-03 
5.6716623e-04 0.0000000e+00 7.9753457e-03 
-2.0932177e-04 0.0000000e+00 7.2972957e-03 
-2.0932177e-04 0.0000000e+00 7.2972957e-03 
5.7754928e-04 0.0000000e+00 8.1215249e-03 
5.7754928e-04 0.0000000e+00 8.1215249e-03 
-2.0845271e-04 0.0000000e+00 7.3479939e-03 
-2.0845271e-04 0.0000000e+00 7.3479939e-03 
5.8777791e-04 0.0000000e+00 8.2619347e-03 
5.8777791e-04 0.0000000e+00 8.2619347e-03 
-2.0749214e-04 0.0000000e+00 7.3960237e-03 
-2.0749214e-04 0.0000000e+00 7.3960237e-03 
5.9784308e-04 0.0000000e+00 8.3966808e-03 
5.9784308e-04 0.0000000e+00 8.3966808e-03 
-2.0644324e-04 0.0000000e+00 7.4414041e-03 
-2.0644324e-04 0.0000000e+00 7.4414041e-03 
6.0773594e-04 0.0000000e+00 8.5258616e-03 
6.0773594e-04 0.0000000e+00 8.5258616e-03 
-2.0530913e-04 0.0000000e+00 7.4841530e-03 
-2.0530913e-04 0.0000000e+00 7.4841530e-03 
6.1744859e-04 0.0000000e+00 8.6495776e-03 
6.1744859e-04 0.0000000e+00 8.6495776e-03 
-2.0409291e-04 0.0000000e+00 7.5242911e-03 
-2.0409291e-04 0.0000000e+00 7.5242911e-03 
6.2697317e-04 0.0000000e+00 8.7679209e-03 
6.2697317e-04 0.0000000e+00 8.7679209e-03 
-2.0279758e-04 0.0000000e+00 7.5618369e-03 
6.3630271e-04 0.0000000e+00 8.8809864e-03 
-2.0279758e-04 0.0000000e+00 7.5618369e-03 
6.3630271e-04 0.0000000e+00 8.8809864e-03 
6.4543026e-04 0.0000000e+00 8.9888610e-03 
-2.0142610e-04 0.0000000e+00 7.5968085e-03 
6.4543026e-04 0.0000000e+00 8.9888610e-03 
-2.0142610e-04 0.0000000e+00 7.5968085e-03 
6.5434963e-04 0.0000000e+00 9.0916339e-03 
-1.9998133e-04 0.0000000e+00 7.6292231e-03 
6.5434963e-04 0.0000000e+00 9.0916339e-03 
-1.9998133e-04 0.0000000e+00 7.6292231e-03 
6.6305493e-04 0.0000000e+00 9.1893905e-03 
6.6305493e-04 0.0000000e+00 9.1893905e-03 
-1.9846616e-04 0.0000000e+00 7.6591015e-03 
-1.9846616e-04 0.0000000e+00 7.6591015e-03 
6.7154041e-04 0.0000000e+00 9.2822114e-03 
6.7154041e-04 0.0000000e+00 9.2822114e-03 
-1.9688334e-04 0.0000000e+00 7.6864597e-03 
-1.9688334e-04 0.0000000e+00 7.6864597e-03 
6.7980108e-04 0.0000000e+00 9.3701801e-03 
6.7980108e-04 0.0000000e+00 9.3701801e-03 
-1.9523561e-04 0.0000000e+00 7.7113165e-03 
-1.9523561e-04 0.0000000e+00 7.7113165e-03 
6.8783186e-04 0.0000000e+00 9.4533725e-03 
6.8783186e-04 0.0000000e+00 9.4533725e-03 
-1.9352566e-04 0.0000000e+00 7.7336891e-03 
-1.9352566e-04 0.0000000e+00 7.7336891e-03 
6.9562840e-04 0.0000000e+00 9.5318684e-03 
6.9562840e-04 0.0000000e+00 9.5318684e-03 
-1.9175610e-04 0.0000000e+00 7.7535948e-03 
-1.9175610e-04 0.0000000e+00 7.7535948e-03 
7.0318626e-04 0.0000000e+00 9.6057401e-03 
7.0318626e-04 0.0000000e+00 9.6057401e-03 
-1.8992952e-04 0.0000000e+00 7.7710514e-03 
-1.8992952e-04 0.0000000e+00 7.7710514e-03 
7.1050161e-04 0.0000000e+00 9.6750630e-03 
7.1050161e-04 0.0000000e+00 9.6750630e-03 
-1.8804843e-04 0.0000000e+00 7.7860758e-03 
-1.8804843e-04 0.0000000e+00 7.7860758e-03 
7.1757081e-04 0.0000000e+00 9.7399088e-03 
7.1757081e-04 0.0000000e+00 9.7399088e-03 
-1.8611534e-04 0.0000000e+00 7.7986847e-03 
-1.8611534e-04 0.0000000e+00 7.7986847e-03 
7.2439035e-04 0.0000000e+00 9.8003470e-03 
7.2439035e-04 0.0000000e+00 9.8003470e-03 
-1.8413265e-04 0.0000000e+00 7.8088953e-03 
-1.8413265e-04 0.0000000e+00 7.8088953e-03 
7.3095720e-04 0.0000000e+00 9.8564475e-03 
7.3095720e-04 0.0000000e+00 9.8564475e-03 
-1.8210275e-04 0.0000000e+00 7.8167242e-03 
-1.8210275e-04 0.0000000e+00 7.8167242e-03 
7.3726830e-04 0.0000000e+00 9.9082757e-03 
7.3726830e-04 0.0000000e+00 9.9082757e-03 
-1.8002801e-04 0.0000000e+00 7.8221877e-03 
-1.8002801e-04 0.0000000e+00 7.8221877e-03 
7.4332109e-04 0.0000000e+00 9.9558992e-03 
7.4332109e-04 0.0000000e+00 9.9558992e-03 
-1.7791070e-04 0.0000000e+00 7.8253029e-03 
-1.7791070e-04 0.0000000e+00 7.8253029e-03 
7.4911278e-04 0.0000000e+00 9.9993774e-03 
7.4911278e-04 0.0000000e+00 9.9993774e-03 
-1.7575309e-04 0.0000000e+00 7.8260861e-03 
-1.7575309e-04 0.0000000e+00 7.8260861e-03 
7.5461548e-04 0.0000000e+00 1.0038601e-02 
7.5461548e-04 0.0000000e+00 1.0038601e-02 
-1.7355076e-04 0.0000000e+00 7.8245439e-03 
-1.7355076e-04 0.0000000e+00 7.8245439e-03 
7.6087299e-04 0.0000000e+00 1.0080437e-02 
7.6087299e-04 0.0000000e+00 1.0080437e-02 
-1.7086038e-04 0.0000000e+00 7.8196390e-03 
-1.7086038e-04 0.0000000e+00 7.8196390e-03 
7.6787950e-04 0.0000000e+00 1.0123236e-02 
7.6787950e-04 0.0000000e+00 1.0123236e-02 
-1.6756837e-04 0.0000000e+00 7.8093945e-03 
-1.6756837e-04 0.0000000e+00 7.8093945e-03 
7.7555672e-04 0.0000000e+00 1.0164150e-02 
7.7555672e-04 0.0000000e+00 1.0164150e-02 
-1.6357612e-04 0.0000000e+00 7.7911099e-03 
-1.6357612e-04 0.0000000e+00 7.7911099e-03 
7.8277639e-04 0.0000000e+00 1.0195231e-02 
7.8277639e-04 0.0000000e+00 1.0195231e-02 
-1.5950453e-04 0.0000000e+00 7.7662554e-03 
-1.5950453e-04 0.0000000e+00 7.7662554e-03 
7.8909784e-04 0.0000000e+00 1.0214303e-02 
7.8909784e-04 0.0000000e+00 1.0214303e-02 
-1.5536338e-04 0.0000000e+00 7.7349082e-03 
-1.5536338e-04 0.0000000e+00 7.7349082e-03 
7.9451709e-04 0.0000000e+00 1.0221691e-02 
7.9451709e-04 0.0000000e+00 1.0221691e-02 
-1.5116214e-04 0.0000000e+00 7.6971447e-03 
-1.5116214e-04 0.0000000e+00 7.6971447e-03 
7.9903152e-04 0.0000000e+00 1.0217713e-02 
7.9903152e-04 0.0000000e+00 1.0217713e-02 
-1.4690997e-04 0.0000000e+00 7.6530406e-03 
-1.4690997e-04 0.0000000e+00 7.6530406e-03 
8.0263971e-04 0.0000000e+00 1.0202671e-02 
8.0263971e-04 0.0000000e+00 1.0202671e-02 
-1.4261571e-04 0.0000000e+00 7.6026705e-03 
-1.4261571e-04 0.0000000e+00 7.6026705e-03 
8.0534191e-04 0.0000000e+00 1.0176863e-02 
8.0534191e-04 0.0000000e+00 1.0176863e-02 
-1.3828793e-04 0.0000000e+00 7.5461085e-03 
-1.3828793e-04 0.0000000e+00 7.5461085e-03 
8.0713937e-04 0.0000000e+00 1.0140578e-02 
8.0713937e-04 0.0000000e+00 1.0140578e-02 
-1.3393488e-04 0.0000000e+00 7.4834279e-03 
-1.3393488e-04 0.0000000e+00 7.4834279e-03 