# vtk DataFile Version 4.0
vtk output
ASCII
DATASET UNSTRUCTURED_GRID
POINTS 824 float
-6.4148600e-05 1.0000000e-02 -4.4525366e-03 
-1.0680180e-04 1.0000000e-02 -2.8088474e-03 
3.4513260e-04 1.0000000e-02 -6.0450544e-03 
1.3803532e-03 1.0000000e-02 -7.3230534e-03 
6.5829700e-05 1.0000000e-02 -1.1736922e-03 
2.7142144e-03 1.0000000e-02 -8.2851896e-03 
5.0392030e-04 1.0000000e-02 6.5784910e-04 
4.1780764e-03 1.0000000e-02 -9.0342357e-03 
1.1628646e-03 1.0000000e-02 2.4220088e-03 
5.7070961e-03 1.0000000e-02 -9.6390187e-03 
2.0046218e-03 1.0000000e-02 4.1066196e-03 
7.2731595e-03 1.0000000e-02 -1.0140047e-02 
-6.4148600e-05 0.0000000e+00 -4.4525366e-03 
-1.0680180e-04 0.0000000e+00 -2.8088474e-03 
3.4513260e-04 0.0000000e+00 -6.0450544e-03 
1.3803532e-03 0.0000000e+00 -7.3230534e-03 
6.5829700e-05 0.0000000e+00 -1.1736922e-03 
2.9952540e-03 1.0000000e-02 5.7082181e-03 
8.8622628e-03 1.0000000e-02 -1.0562311e-02 
2.7142144e-03 0.0000000e+00 -8.2851896e-03 
5.0392030e-04 0.0000000e+00 6.5784910e-04 
4.1780764e-03 0.0000000e+00 -9.0342357e-03 
1.1628646e-03 0.0000000e+00 2.4220088e-03 
1.0466628e-02 1.0000000e-02 -1.0922252e-02 
4.1067238e-03 1.0000000e-02 7.2284501e-03 
5.7070961e-03 0.0000000e+00 -9.6390187e-03 
2.0046218e-03 0.0000000e+00 4.1066196e-03 
7.2731595e-03 0.0000000e+00 -1.0140047e-02 
1.2081579e-02 1.0000000e-02 -1.1231240e-02 
5.3166988e-03 1.0000000e-02 8.6715129e-03 
2.9952540e-03 0.0000000e+00 5.7082181e-03 
8.8622628e-03 0.0000000e+00 -1.0562311e-02 
1.3704120e-02 1.0000000e-02 -1.1497501e-02 
1.0466628e-02 0.0000000e+00 -1.0922252e-02 
4.1067238e-03 0.0000000e+00 7.2284501e-03 
6.6076374e-03 1.0000000e-02 1.0042624e-02 
1.5332244e-02 1.0000000e-02 -1.1727173e-02 
1.2081579e-02 0.0000000e+00 -1.1231240e-02 
5.3166988e-03 0.0000000e+00 8.6715129e-03 
7.9658343e-03 1.0000000e-02 1.1347144e-02 
1.3704120e-02 0.0000000e+00 -1.1497501e-02 
1.6964543e-02 1.0000000e-02 -1.1925002e-02 
6.6076374e-03 0.0000000e+00 1.0042624e-02 
9.3804686e-03 1.0000000e-02 1.2590236e-02 
1.5332244e-02 0.0000000e+00 -1.1727173e-02 
1.8600004e-02 1.0000000e-02 -1.2094716e-02 
7.9658343e-03 0.0000000e+00 1.1347144e-02 
1.6964543e-02 0.0000000e+00 -1.1925002e-02 
1.0843002e-02 1.0000000e-02 1.3776601e-02 
2.0237876e-02 1.0000000e-02 -1.2239318e-02 
9.3804686e-03 0.0000000e+00 1.2590236e-02 
1.8600004e-02 0.0000000e+00 -1.2094716e-02 
1.2346566e-02 1.0000000e-02 1.4910517e-02 
2.1877591e-02 1.0000000e-02 -1.2361246e-02 
1.0843002e-02 0.0000000e+00 1.3776601e-02 
2.0237876e-02 0.0000000e+00 -1.2239318e-02 
1.3885623e-02 1.0000000e-02 1.5995768e-02 
2.3518711e-02 1.0000000e-02 -1.2462540e-02 
1.2346566e-02 0.0000000e+00 1.4910517e-02 
2.1877591e-02 0.0000000e+00 -1.2361246e-02 
2.5160890e-02 1.0000000e-02 -1.2544903e-02 
1.5455654e-02 1.0000000e-02 1.7035707e-02 
1.3885623e-02 0.0000000e+00 1.5995768e-02 
2.3518711e-02 0.0000000e+00 -1.2462540e-02 
2.6803852e-02 1.0000000e-02 -1.2609772e-02 
1.7052912e-02 1.0000000e-02 1.8033321e-02 
2.5160890e-02 0.0000000e+00 -1.2544903e-02 
1.5455654e-02 0.0000000e+00 1.7035707e-02 
2.8447376e-02 1.0000000e-02 -1.2658389e-02 
2.6803852e-02 0.0000000e+00 -1.2609772e-02 
1.7052912e-02 0.0000000e+00 1.8033321e-02 
1.8674284e-02 1.0000000e-02 1.8991246e-02 
3.0091279e-02 1.0000000e-02 -1.2691814e-02 
2.8447376e-02 0.0000000e+00 -1.2658389e-02 
1.8674284e-02 0.0000000e+00 1.8991246e-02 
2.0317149e-02 1.0000000e-02 1.9911822e-02 
3.0091279e-02 0.0000000e+00 -1.2691814e-02 
3.1735410e-02 1.0000000e-02 -1.2710971e-02 
2.0317149e-02 0.0000000e+00 1.9911822e-02 
2.1979295e-02 1.0000000e-02 2.0797113e-02 
3.1735410e-02 0.0000000e+00 -1.2710971e-02 
3.3379643e-02 1.0000000e-02 -1.2716676e-02 
2.1979295e-02 0.0000000e+00 2.0797113e-02 
2.3658832e-02 1.0000000e-02 2.1648949e-02 
3.3379643e-02 0.0000000e+00 -1.2716676e-02 
3.5023871e-02 1.0000000e-02 -1.2709629e-02 
2.3658832e-02 0.0000000e+00 2.1648949e-02 
2.5354100e-02 1.0000000e-02 2.2469029e-02 
3.5023871e-02 0.0000000e+00 -1.2709629e-02 
3.6668001e-02 1.0000000e-02 -1.2690457e-02 
2.5354100e-02 0.0000000e+00 2.2469029e-02 
2.7063712e-02 1.0000000e-02 2.3258772e-02 
3.6668001e-02 0.0000000e+00 -1.2690457e-02 
3.8312016e-02 1.0000000e-02 -1.2663038e-02 
2.7063712e-02 0.0000000e+00 2.3258772e-02 
3.8312016e-02 0.0000000e+00 -1.2663038e-02 
2.8786417e-02 1.0000000e-02 2.4019532e-02 
3.9956032e-02 1.0000000e-02 -1.2635752e-02 
2.8786417e-02 0.0000000e+00 2.4019532e-02 
3.9956032e-02 0.0000000e+00 -1.2635752e-02 
3.0521135e-02 1.0000000e-02 2.4752486e-02 
4.1600048e-02 1.0000000e-02 -1.2608467e-02 
3.0521135e-02 0.0000000e+00 2.4752486e-02 
4.1600048e-02 0.0000000e+00 -1.2608467e-02 
3.2266919e-02 1.0000000e-02 2.5458676e-02 
4.3299814e-02 1.0000000e-02 -1.2580255e-02 
3.2266919e-02 0.0000000e+00 2.5458676e-02 
4.3299814e-02 0.0000000e+00 -1.2580255e-02 
3.4022902e-02 1.0000000e-02 2.6139111e-02 
4.5339533e-02 1.0000000e-02 -1.2546402e-02 
3.4022902e-02 0.0000000e+00 2.6139111e-02 
4.5339533e-02 0.0000000e+00 -1.2546402e-02 
3.5788340e-02 1.0000000e-02 2.6794623e-02 
4.7787196e-02 1.0000000e-02 -1.2505778e-02 
3.5788340e-02 0.0000000e+00 2.6794623e-02 
3.7562554e-02 1.0000000e-02 2.7425996e-02 
4.7787196e-02 0.0000000e+00 -1.2505778e-02 
3.7562554e-02 0.0000000e+00 2.7425996e-02 
3.9344928e-02 1.0000000e-02 2.8033950e-02 
5.0379113e-02 1.0000000e-02 -1.2462760e-02 
3.9344928e-02 0.0000000e+00 2.8033950e-02 
5.0379113e-02 0.0000000e+00 -1.2462760e-02 
4.1134916e-02 1.0000000e-02 2.8619109e-02 
5.2971029e-02 1.0000000e-02 -1.2419741e-02 
4.1134916e-02 0.0000000e+00 2.8619109e-02 
5.2971029e-02 0.0000000e+00 -1.2419741e-02 
4.2932026e-02 1.0000000e-02 2.9182016e-02 
4.2932026e-02 0.0000000e+00 2.9182016e-02 
5.5562946e-02 1.0000000e-02 -1.2376723e-02 
4.5339682e-02 1.0000000e-02 2.9899231e-02 
5.5562946e-02 0.0000000e+00 -1.2376723e-02 
4.5339682e-02 0.0000000e+00 2.9899231e-02 
5.8154863e-02 1.0000000e-02 -1.2333705e-02 
4.7758221e-02 1.0000000e-02 3.0578844e-02 
5.8154863e-02 0.0000000e+00 -1.2333705e-02 
4.7758221e-02 0.0000000e+00 3.0578844e-02 
6.0746779e-02 1.0000000e-02 -1.2290686e-02 
5.0186760e-02 1.0000000e-02 3.1221807e-02 
6.0746779e-02 0.0000000e+00 -1.2290686e-02 
5.0186760e-02 0.0000000e+00 3.1221807e-02 
6.3338696e-02 1.0000000e-02 -1.2247668e-02 
5.2624513e-02 1.0000000e-02 3.1828903e-02 
6.3338696e-02 0.0000000e+00 -1.2247668e-02 
5.2624513e-02 0.0000000e+00 3.1828903e-02 
5.5070762e-02 1.0000000e-02 3.2400804e-02 
6.5930613e-02 1.0000000e-02 -1.2204650e-02 
5.5070762e-02 0.0000000e+00 3.2400804e-02 
6.5930613e-02 0.0000000e+00 -1.2204650e-02 
5.7524847e-02 1.0000000e-02 3.2938082e-02 
6.8522529e-02 1.0000000e-02 -1.2161631e-02 
5.7524847e-02 0.0000000e+00 3.2938082e-02 
6.8522529e-02 0.0000000e+00 -1.2161631e-02 
5.9986169e-02 1.0000000e-02 3.3441170e-02 
7.1114446e-02 1.0000000e-02 -1.2118613e-02 
5.9986169e-02 0.0000000e+00 3.3441170e-02 
7.1114446e-02 0.0000000e+00 -1.2118613e-02 
6.2454163e-02 1.0000000e-02 3.3910436e-02 
6.2454163e-02 0.0000000e+00 3.3910436e-02 
7.3706362e-02 1.0000000e-02 -1.2075595e-02 
7.3706362e-02 0.0000000e+00 -1.2075595e-02 
6.4928303e-02 1.0000000e-02 3.4346139e-02 
6.4928303e-02 0.0000000e+00 3.4346139e-02 
7.6298279e-02 1.0000000e-02 -1.2032577e-02 
7.6298279e-02 0.0000000e+00 -1.2032577e-02 
6.7408092e-02 1.0000000e-02 3.4748446e-02 
6.7408092e-02 0.0000000e+00 3.4748446e-02 
7.8890196e-02 1.0000000e-02 -1.1989558e-02 
7.8890196e-02 0.0000000e+00 -1.1989558e-02 
6.9893057e-02 1.0000000e-02 3.5117436e-02 
6.9893057e-02 0.0000000e+00 3.5117436e-02 
8.1482112e-02 1.0000000e-02 -1.1946540e-02 
8.1482112e-02 0.0000000e+00 -1.1946540e-02 
7.2382742e-02 1.0000000e-02 3.5453098e-02 
7.2382742e-02 0.0000000e+00 3.5453098e-02 
8.4074029e-02 1.0000000e-02 -1.1903522e-02 
7.4876707e-02 1.0000000e-02 3.5755332e-02 
8.4074029e-02 0.0000000e+00 -1.1903522e-02 
7.4876707e-02 0.0000000e+00 3.5755332e-02 
8.6665946e-02 1.0000000e-02 -1.1860503e-02 
7.7374516e-02 1.0000000e-02 3.6023948e-02 
8.6665946e-02 0.0000000e+00 -1.1860503e-02 
7.7374516e-02 0.0000000e+00 3.6023948e-02 
8.9257862e-02 1.0000000e-02 -1.1817485e-02 
7.9875738e-02 1.0000000e-02 3.6258665e-02 
8.9257862e-02 0.0000000e+00 -1.1817485e-02 
7.9875738e-02 0.0000000e+00 3.6258665e-02 
8.2379940e-02 1.0000000e-02 3.6459105e-02 
9.1849779e-02 1.0000000e-02 -1.1774467e-02 
8.2379940e-02 0.0000000e+00 3.6459105e-02 
9.1849779e-02 0.0000000e+00 -1.1774467e-02 
8.4886681e-02 1.0000000e-02 3.6624786e-02 
9.4441696e-02 1.0000000e-02 -1.1731448e-02 
8.4886681e-02 0.0000000e+00 3.6624786e-02 
9.4441696e-02 0.0000000e+00 -1.1731448e-02 
8.7395510e-02 1.0000000e-02 3.6755108e-02 
8.7395510e-02 0.0000000e+00 3.6755108e-02 
9.7033612e-02 1.0000000e-02 -1.1688430e-02 
9.7033612e-02 0.0000000e+00 -1.1688430e-02 
8.9905951e-02 1.0000000e-02 3.6849401e-02 
8.9905951e-02 0.0000000e+00 3.6849401e-02 
9.9625529e-02 1.0000000e-02 -1.1645412e-02 
9.9625529e-02 0.0000000e+00 -1.1645412e-02 
9.2417505e-02 1.0000000e-02 3.6906832e-02 
9.2417505e-02 0.0000000e+00 3.6906832e-02 
1.0221745e-01 1.0000000e-02 -1.1602393e-02 
1.0221745e-01 0.0000000e+00 -1.1602393e-02 
9.4929640e-02 1.0000000e-02 3.6926425e-02 
9.4929640e-02 0.0000000e+00 3.6926425e-02 
1.0480936e-01 1.0000000e-02 -1.1559375e-02 
1.0480936e-01 0.0000000e+00 -1.1559375e-02 
9.7441776e-02 1.0000000e-02 3.6907077e-02 
9.7441776e-02 0.0000000e+00 3.6907077e-02 
1.0740128e-01 1.0000000e-02 -1.1516357e-02 
1.0740128e-01 0.0000000e+00 -1.1516357e-02 
9.9953281e-02 1.0000000e-02 3.6847529e-02 
9.9953281e-02 0.0000000e+00 3.6847529e-02 
1.0999320e-01 1.0000000e-02 -1.1473339e-02 
1.0246345e-01 1.0000000e-02 3.6746314e-02 
1.0999320e-01 0.0000000e+00 -1.1473339e-02 
1.0246345e-01 0.0000000e+00 3.6746314e-02 
1.0497150e-01 1.0000000e-02 3.6601738e-02 
1.1258511e-01 1.0000000e-02 -1.1430320e-02 
1.0497150e-01 0.0000000e+00 3.6601738e-02 
1.1258511e-01 0.0000000e+00 -1.1430320e-02 
1.0747666e-01 1.0000000e-02 3.6413638e-02 
1.1517703e-01 1.0000000e-02 -1.1387302e-02 
1.0747666e-01 0.0000000e+00 3.6413638e-02 
[...]
POINT_DATA 824
FIELD FieldData 2
DISPLACEMENT 3 824  float
0.0000000e+00 0.0000000e+00 0.0000000e+00 
0.0000000e+00 0.0000000e+00 0.0000000e+00 
0.0000000e+00 0.0000000e+00 0.0000000e+00 
0.0000000e+00 0.0000000e+00 0.0000000e+00 
0.0000000e+00 0.0000000e+00 0.0000000e+00 
0.0000000e+00 0.0000000e+00 0.0000000e+00 
0.0000000e+00 0.0000000e+00 0.0000000e+00 
0.0000000e+00 0.0000000e+00 0.0000000e+00 
0.0000000e+00 0.0000000e+00 0.0000000e+00 
0.0000000e+00 0.0000000e+00 0.0000000e+00 
0.0000000e+00 0.0000000e+00 0.0000000e+00 
0.0000000e+00 0.0000000e+00 0.0000000e+00 
0.0000000e+00 0.0000000e+00 0.0000000e+00 
0.0000000e+00 0.0000000e+00 0.0000000e+00 
0.0000000e+00 0.0000000e+00 0.0000000e+00 
0.0000000e+00 0.0000000e+00 0.0000000e+00 
0.0000000e+00 0.0000000e+00 0.0000000e+00 
0.0000000e+00 0.0000000e+00 0.0000000e+00 
0.0000000e+00 0.0000000e+00 0.0000000e+00 
0.0000000e+00 0.0000000e+00 0.0000000e+00 
0.0000000e+00 0.0000000e+00 0.0000000e+00 
0.0000000e+00 0.0000000e+00 0.0000000e+00 
0.0000000e+00 0.0000000e+00 0.0000000e+00 
0.0000000e+00 0.0000000e+00 0.0000000e+00 
0.0000000e+00 0.0000000e+00 0.0000000e+00 
0.0000000e+00 0.0000000e+00 0.0000000e+00 
0.0000000e+00 0.0000000e+00 0.0000000e+00 
0.0000000e+00 0.0000000e+00 0.0000000e+00 
0.0000000e+00 0.0000000e+00 0.0000000e+00 
0.0000000e+00 0.0000000e+00 0.0000000e+00 
0.0000000e+00 0.0000000e+00 0.0000000e+00 
0.0000000e+00 0.0000000e+00 0.0000000e+00 
0.0000000e+00 0.0000000e+00 0.0000000e+00 
0.0000000e+00 0.0000000e+00 0.0000000e+00 
0.0000000e+00 0.0000000e+00 0.0000000e+00 
0.0000000e+00 0.0000000e+00 0.0000000e+00 
0.0000000e+00 0.0000000e+00 0.0000000e+00 
0.0000000e+00 0.0000000e+00 0.0000000e+00 
0.0000000e+00 0.0000000e+00 0.0000000e+00 
0.0000000e+00 0.0000000e+00 0.0000000e+00 
0.0000000e+00 0.0000000e+00 0.0000000e+00 
0.0000000e+00 0.0000000e+00 0.0000000e+00 
0.0000000e+00 0.0000000e+00 0.0000000e+00 
0.0000000e+00 0.0000000e+00 0.0000000e+00 
0.0000000e+00 0.0000000e+00 0.0000000e+00 
0.0000000e+00 0.0000000e+00 0.0000000e+00 
0.0000000e+00 0.0000000e+00 0.0000000e+00 
0.0000000e+00 0.0000000e+00 0.0000000e+00 
0.0000000e+00 0.0000000e+00 0.0000000e+00 
0.0000000e+00 0.0000000e+00 0.0000000e+00 
0.0000000e+00 0.0000000e+00 0.0000000e+00 
0.0000000e+00 0.0000000e+00 0.0000000e+00 
0.0000000e+00 0.0000000e+00 0.0000000e+00 
0.0000000e+00 0.0000000e+00 0.0000000e+00 
0.0000000e+00 0.0000000e+00 0.0000000e+00 
0.0000000e+00 0.0000000e+00 0.0000000e+00 
0.0000000e+00 0.0000000e+00 0.0000000e+00 
0.0000000e+00 0.0000000e+00 0.0000000e+00 
0.0000000e+00 0.0000000e+00 0.0000000e+00 
0.0000000e+00 0.0000000e+00 0.0000000e+00 
0.0000000e+00 0.0000000e+00 0.0000000e+00 
0.0000000e+00 0.0000000e+00 0.0000000e+00 
0.0000000e+00 0.0000000e+00 0.0000000e+00 
0.0000000e+00 0.0000000e+00 0.0000000e+00 
0.0000000e+00 0.0000000e+00 0.0000000e+00 
0.0000000e+00 0.0000000e+00 0.0000000e+00 
0.0000000e+00 0.0000000e+00 0.0000000e+00 
0.0000000e+00 0.0000000e+00 0.0000000e+00 
0.0000000e+00 0.0000000e+00 0.0000000e+00 
0.0000000e+00 0.0000000e+00 0.0000000e+00 
0.0000000e+00 0.0000000e+00 0.0000000e+00 
0.0000000e+00 0.0000000e+00 0.0000000e+00 
0.0000000e+00 0.0000000e+00 0.0000000e+00 
0.0000000e+00 0.0000000e+00 0.0000000e+00 
0.0000000e+00 0.0000000e+00 0.0000000e+00 
0.0000000e+00 0.0000000e+00 0.0000000e+00 
0.0000000e+00 0.0000000e+00 0.0000000e+00 
0.0000000e+00 0.0000000e+00 0.0000000e+00 
0.0000000e+00 0.0000000e+00 0.0000000e+00 
0.0000000e+00 0.0000000e+00 0.0000000e+00 
0.0000000e+00 0.0000000e+00 0.0000000e+00 
0.0000000e+00 0.0000000e+00 0.0000000e+00 
0.0000000e+00 0.0000000e+00 0.0000000e+00 
0.0000000e+00 0.0000000e+00 0.0000000e+00 
0.0000000e+00 0.0000000e+00 0.0000000e+00 
0.0000000e+00 0.0000000e+00 0.0000000e+00 
0.0000000e+00 0.0000000e+00 0.0000000e+00 
0.0000000e+00 0.0000000e+00 0.0000000e+00 
0.0000000e+00 0.0000000e+00 0.0000000e+00 
0.0000000e+00 0.0000000e+00 0.0000000e+00 
0.0000000e+00 0.0000000e+00 0.0000000e+00 
0.0000000e+00 0.0000000e+00 0.0000000e+00 
0.0000000e+00 0.0000000e+00 0.0000000e+00 
0.0000000e+00 0.0000000e+00 0.0000000e+00 
0.0000000e+00 0.0000000e+00 0.0000000e+00 
0.0000000e+00 0.0000000e+00 0.0000000e+00 
0.0000000e+00 0.0000000e+00 0.0000000e+00 
-1.3177370e-04 0.0000000e+00 7.8953129e-04 
0.0000000e+00 0.0000000e+00 0.0000000e+00 
-1.3177370e-04 0.0000000e+00 7.8953129e-04 
0.0000000e+00 0.0000000e+00 0.0000000e+00 
-2.6178704e-04 0.0000000e+00 1.5752380e-03 
0.0000000e+00 0.0000000e+00 0.0000000e+00 
-2.6178704e-04 0.0000000e+00 1.5752380e-03 
0.0000000e+00 0.0000000e+00 0.0000000e+00 
-3.9433507e-04 0.0000000e+00 2.3834784e-03 
0.0000000e+00 0.0000000e+00 0.0000000e+00 
-3.9433507e-04 0.0000000e+00 2.3834784e-03 
0.0000000e+00 0.0000000e+00 0.0000000e+00 
-5.5084428e-04 0.0000000e+00 3.3477281e-03 
0.0000000e+00 0.0000000e+00 0.0000000e+00 
-5.5084428e-04 0.0000000e+00 3.3477281e-03 
0.0000000e+00 0.0000000e+00 0.0000000e+00 
-7.3494837e-04 0.0000000e+00 4.4965334e-03 
0.0000000e+00 0.0000000e+00 0.0000000e+00 
0.0000000e+00 0.0000000e+00 0.0000000e+00 
-7.3494837e-04 0.0000000e+00 4.4965334e-03 
0.0000000e+00 0.0000000e+00 0.0000000e+00 
-1.5383163e-04 0.0000000e+00 7.0959969e-04 
-9.2545001e-04 0.0000000e+00 5.7029576e-03 
-1.5383163e-04 0.0000000e+00 7.0959969e-04 
-9.2545001e-04 0.0000000e+00 5.7029576e-03 
-3.0687008e-04 0.0000000e+00 1.4293151e-03 
-1.1113016e-03 0.0000000e+00 6.8987071e-03 
-3.0687008e-04 0.0000000e+00 1.4293151e-03 
-1.1113016e-03 0.0000000e+00 6.8987071e-03 
-4.5885910e-04 0.0000000e+00 2.1586842e-03 
-4.5885910e-04 0.0000000e+00 2.1586842e-03 
-1.2924277e-03 0.0000000e+00 8.0834666e-03 
-6.6012844e-04 0.0000000e+00 3.1463260e-03 
-1.2924277e-03 0.0000000e+00 8.0834666e-03 
-6.6012844e-04 0.0000000e+00 3.1463260e-03 
-1.4687427e-03 0.0000000e+00 9.2569366e-03 
-8.5994288e-04 0.0000000e+00 4.1507314e-03 
-1.4687427e-03 0.0000000e+00 9.2569366e-03 
-8.5994288e-04 0.0000000e+00 4.1507314e-03 
-1.6401711e-03 0.0000000e+00 1.0418837e-02 
-1.0582714e-03 0.0000000e+00 5.1718965e-03 
-1.6401711e-03 0.0000000e+00 1.0418837e-02 
-1.0582714e-03 0.0000000e+00 5.1718965e-03 
-1.8066401e-03 0.0000000e+00 1.1568848e-02 
-1.2549955e-03 0.0000000e+00 6.2097722e-03 
-1.8066401e-03 0.0000000e+00 1.1568848e-02 
-1.2549955e-03 0.0000000e+00 6.2097722e-03 
-1.4498117e-03 0.0000000e+00 7.2640729e-03 
-1.9680589e-03 0.0000000e+00 1.2706593e-02 
-1.4498117e-03 0.0000000e+00 7.2640729e-03 
-1.9680589e-03 0.0000000e+00 1.2706593e-02 
-1.6423461e-03 0.0000000e+00 8.3344281e-03 
-2.1243453e-03 0.0000000e+00 1.3831745e-02 
-1.6423461e-03 0.0000000e+00 8.3344281e-03 
-2.1243453e-03 0.0000000e+00 1.3831745e-02 
-1.8322779e-03 0.0000000e+00 9.4205987e-03 
-2.2754432e-03 0.0000000e+00 1.4944039e-02 
-1.8322779e-03 0.0000000e+00 9.4205987e-03 
-2.2754432e-03 0.0000000e+00 1.4944039e-02 
-2.0193048e-03 0.0000000e+00 1.0522406e-02 
-2.0193048e-03 0.0000000e+00 1.0522406e-02 
-2.4212903e-03 0.0000000e+00 1.6043144e-02 
-2.4212903e-03 0.0000000e+00 1.6043144e-02 
-2.2030966e-03 0.0000000e+00 1.1639754e-02 
-2.2030966e-03 0.0000000e+00 1.1639754e-02 
-2.5618014e-03 0.0000000e+00 1.7128665e-02 
-2.5618014e-03 0.0000000e+00 1.7128665e-02 
-2.3832809e-03 0.0000000e+00 1.2772511e-02 
-2.3832809e-03 0.0000000e+00 1.2772511e-02 
-2.6969218e-03 0.0000000e+00 1.8200288e-02 
-2.6969218e-03 0.0000000e+00 1.8200288e-02 
-2.5594883e-03 0.0000000e+00 1.3920518e-02 
-2.5594883e-03 0.0000000e+00 1.3920518e-02 
-2.8266324e-03 0.0000000e+00 1.9257789e-02 
-2.8266324e-03 0.0000000e+00 1.9257789e-02 
-2.7313943e-03 0.0000000e+00 1.5083759e-02 
-2.7313943e-03 0.0000000e+00 1.5083759e-02 
-2.9508992e-03 0.0000000e+00 2.0300871e-02 
-2.8986265e-03 0.0000000e+00 1.6262242e-02 
-2.9508992e-03 0.0000000e+00 2.0300871e-02 
-2.8986265e-03 0.0000000e+00 1.6262242e-02 
-3.0696612e-03 0.0000000e+00 2.1329153e-02 
-3.0607846e-03 0.0000000e+00 1.7455987e-02 
-3.0696612e-03 0.0000000e+00 2.1329153e-02 
-3.0607846e-03 0.0000000e+00 1.7455987e-02 
-3.1828725e-03 0.0000000e+00 2.2342296e-02 
-3.2175014e-03 0.0000000e+00 1.8665102e-02 
-3.1828725e-03 0.0000000e+00 2.2342296e-02 
-3.2175014e-03 0.0000000e+00 1.8665102e-02 
-3.3684198e-03 0.0000000e+00 1.9889814e-02 
-3.2905223e-03 0.0000000e+00 2.3340041e-02 
-3.3684198e-03 0.0000000e+00 1.9889814e-02 
-3.2905223e-03 0.0000000e+00 2.3340041e-02 
-3.5131832e-03 0.0000000e+00 2.1130534e-02 
-3.3926012e-03 0.0000000e+00 2.4322111e-02 
-3.5131832e-03 0.0000000e+00 2.1130534e-02 
-3.3926012e-03 0.0000000e+00 2.4322111e-02 
-3.6514104e-03 0.0000000e+00 2.2387759e-02 
-3.6514104e-03 0.0000000e+00 2.2387759e-02 
-3.4890799e-03 0.0000000e+00 2.5288160e-02 
-3.4890799e-03 0.0000000e+00 2.5288160e-02 
-3.7826851e-03 0.0000000e+00 2.3661948e-02 
-3.7826851e-03 0.0000000e+00 2.3661948e-02 
-3.5799505e-03 0.0000000e+00 2.6237892e-02 
-3.5799505e-03 0.0000000e+00 2.6237892e-02 
-3.9065769e-03 0.0000000e+00 2.4953736e-02 
-3.9065769e-03 0.0000000e+00 2.4953736e-02 
-3.6652294e-03 0.0000000e+00 2.7171072e-02 
-3.6652294e-03 0.0000000e+00 2.7171072e-02 
-4.0225861e-03 0.0000000e+00 2.6263898e-02 
-4.0225861e-03 0.0000000e+00 2.6263898e-02 
-3.7449216e-03 0.0000000e+00 2.8087408e-02 
-3.7449216e-03 0.0000000e+00 2.8087408e-02 
-4.1301743e-03 0.0000000e+00 2.7593337e-02 
-4.1301743e-03 0.0000000e+00 2.7593337e-02 
-3.8190247e-03 0.0000000e+00 2.8986577e-02 
-3.8190247e-03 0.0000000e+00 2.8986577e-02 
-4.2287913e-03 0.0000000e+00 2.8943108e-02 
-4.2287913e-03 0.0000000e+00 2.8943108e-02 
-3.8875523e-03 0.0000000e+00 2.9868287e-02 
-4.3178252e-03 0.0000000e+00 3.0314475e-02 
-3.8875523e-03 0.0000000e+00 2.9868287e-02 
-4.3178252e-03 0.0000000e+00 3.0314475e-02 
-4.3965821e-03 0.0000000e+00 3.1709016e-02 
-3.9505383e-03 0.0000000e+00 3.0732295e-02 
-4.3965821e-03 0.0000000e+00 3.1709016e-02 
-3.9505383e-03 0.0000000e+00 3.0732295e-02 
-4.4644122e-03 0.0000000e+00 3.3126808e-02 
-4.0080171e-03 0.0000000e+00 3.1578350e-02 
-4.4644122e-03 0.0000000e+00 3.3126808e-02 
-4.0080171e-03 0.0000000e+00 3.1578350e-02 
-4.5233481e-03 0.0000000e+00 3.4536469e-02 
-4.5233481e-03 0.0000000e+00 3.4536469e-02 
-4.0600133e-03 0.0000000e+00 3.2406140e-02 
-4.0600133e-03 0.0000000e+00 3.2406140e-02 
-4.5743847e-03 0.0000000e+00 3.5925438e-02 
-4.5743847e-03 0.0000000e+00 3.5925438e-02 
-4.1065692e-03 0.0000000e+00 3.3215400e-02 
-4.1065692e-03 0.0000000e+00 3.3215400e-02 
-4.6175689e-03 0.0000000e+00 3.7293479e-02 
-4.6175689e-03 0.0000000e+00 3.7293479e-02 
-4.1477443e-03 0.0000000e+00 3.4005918e-02 
-4.1477443e-03 0.0000000e+00 3.4005918e-02 
-4.6529677e-03 0.0000000e+00 3.8640415e-02 
-4.6529677e-03 0.0000000e+00 3.8640415e-02 
-4.1836034e-03 0.0000000e+00 3.4777472e-02 
-4.1836034e-03 0.0000000e+00 3.4777472e-02 
-4.6806381e-03 0.0000000e+00 3.9965987e-02 
-4.6806381e-03 0.0000000e+00 3.9965987e-02 
-4.2142124e-03 0.0000000e+00 3.5529830e-02 
-4.2142124e-03 0.0000000e+00 3.5529830e-02 
-4.7006273e-03 0.0000000e+00 4.1269912e-02 
-4.7006273e-03 0.0000000e+00 4.1269912e-02 
-4.2396316e-03 0.0000000e+00 3.6262739e-02 
-4.7130181e-03 0.0000000e+00 4.2551966e-02 
-4.2396316e-03 0.0000000e+00 3.6262739e-02 
-4.7130181e-03 0.0000000e+00 4.2551966e-02 
-4.7179192e-03 0.0000000e+00 4.3812006e-02 
-4.2599321e-03 0.0000000e+00 3.6975960e-02 
-4.7179192e-03 0.0000000e+00 4.3812006e-02 
-4.2599321e-03 0.0000000e+00 3.6975960e-02 
-4.7154213e-03 0.0000000e+00 4.5049815e-02 
-4.2752107e-03 0.0000000e+00 3.7669331e-02 
-4.7154213e-03 0.0000000e+00 4.5049815e-02 
-4.2752107e-03 0.0000000e+00 3.7669331e-02 
-4.7056027e-03 0.0000000e+00 4.6265115e-02 
-4.7056027e-03 0.0000000e+00 4.6265115e-02 
-4.2855789e-03 0.0000000e+00 3.8342743e-02 
-4.2855789e-03 0.0000000e+00 3.8342743e-02 
-4.6885605e-03 0.0000000e+00 4.7457689e-02 
-4.6885605e-03 0.0000000e+00 4.7457689e-02 
-4.2911428e-03 0.0000000e+00 3.8996059e-02 
-4.2911428e-03 0.0000000e+00 3.8996059e-02 
-4.6644151e-03 0.0000000e+00 4.8627361e-02 
-4.6644151e-03 0.0000000e+00 4.8627361e-02 
-4.2919987e-03 0.0000000e+00 3.9629086e-02 
-4.2919987e-03 0.0000000e+00 3.9629086e-02 
-4.6332887e-03 0.0000000e+00 4.9773962e-02 
-4.6332887e-03 0.0000000e+00 4.9773962e-02 
-4.2882696e-03 0.0000000e+00 4.0241734e-02 
-4.2882696e-03 0.0000000e+00 4.0241734e-02 
-4.5952985e-03 0.0000000e+00 5.0897271e-02 
-4.5952985e-03 0.0000000e+00 5.0897271e-02 
-4.2801076e-03 0.0000000e+00 4.0834038e-02 
-4.2801076e-03 0.0000000e+00 4.0834038e-02 
-4.5505655e-03 0.0000000e+00 5.1997098e-02 
-4.5505655e-03 0.0000000e+00 5.1997098e-02 
-4.2676381e-03 0.0000000e+00 4.1405919e-02 
-4.2676381e-03 0.0000000e+00 4.1405919e-02 
-4.4992209e-03 0.0000000e+00 5.3073268e-02 
-4.4992209e-03 0.0000000e+00 5.3073268e-02 
-4.2509666e-03 0.0000000e+00 4.1957198e-02 
-4.2509666e-03 0.0000000e+00 4.1957198e-02 
-4.4414076e-03 0.0000000e+00 5.4125609e-02 
-4.4414076e-03 0.0000000e+00 5.4125609e-02 
-4.2302369e-03 0.0000000e+00 4.2487862e-02 
-4.3772780e-03 0.0000000e+00 5.5153987e-02 
-4.2302369e-03 0.0000000e+00 4.2487862e-02 
-4.3772780e-03 0.0000000e+00 5.5153987e-02 
-4.2056211e-03 0.0000000e+00 4.2998045e-02 
-4.3069791e-03 0.0000000e+00 5.6158233e-02 
-4.2056211e-03 0.0000000e+00 4.2998045e-02 
-4.3069791e-03 0.0000000e+00 5.6158233e-02 
-4.2306543e-03 0.0000000e+00 5.7138168e-02 
-4.1772677e-03 0.0000000e+00 4.3487785e-02 
-4.2306543e-03 0.0000000e+00 5.7138168e-02 
-4.1772677e-03 0.0000000e+00 4.3487785e-02 
-4.1484673e-03 0.0000000e+00 5.8093642e-02 
-4.1484673e-03 0.0000000e+00 5.8093642e-02 
-4.1453025e-03 0.0000000e+00 4.3956986e-02 
-4.1453025e-03 0.0000000e+00 4.3956986e-02 
-4.0605954e-03 0.0000000e+00 5.9024565e-02 
-4.0605954e-03 0.0000000e+00 5.9024565e-02 
-4.1098751e-03 0.0000000e+00 4.4405681e-02 
-4.1098751e-03 0.0000000e+00 4.4405681e-02 
-3.9672035e-03 0.0000000e+00 5.9930810e-02 
-3.9672035e-03 0.0000000e+00 5.9930810e-02 
-4.0711576e-03 0.0000000e+00 4.4834055e-02 
-4.0711576e-03 0.0000000e+00 4.4834055e-02 
-3.8684486e-03 0.0000000e+00 6.0812188e-02 
-3.8684486e-03 0.0000000e+00 6.0812188e-02 
-4.0293002e-03 0.0000000e+00 4.5242185e-02 
-4.0293002e-03 0.0000000e+00 4.5242185e-02 
-3.7645107e-03 0.0000000e+00 6.1668583e-02 
-3.7645107e-03 0.0000000e+00 6.1668583e-02 
-3.9844353e-03 0.0000000e+00 4.5630038e-02 
-3.9844353e-03 0.0000000e+00 4.5630038e-02 
-3.6555909e-03 0.0000000e+00 6.2499961e-02 
-3.6555909e-03 0.0000000e+00 6.2499961e-02 
-3.9367154e-03 0.0000000e+00 4.5997715e-02 
-3.9367154e-03 0.0000000e+00 4.5997715e-02 
-3.5418699e-03 0.0000000e+00 6.3306221e-02 
-3.5418699e-03 0.0000000e+00 6.3306221e-02 
-3.8863054e-03 0.0000000e+00 4.6345422e-02 
-3.8863054e-03 0.0000000e+00 4.6345422e-02 
-3.4235160e-03 0.0000000e+00 6.4087161e-02 
-3.4235160e-03 0.0000000e+00 6.4087161e-02 
-3.8333552e-03 0.0000000e+00 4.6673290e-02 
-3.8333552e-03 0.0000000e+00 4.6673290e-02 
-3.3007220e-03 0.0000000e+00 6.4842677e-02 
-3.3007220e-03 0.0000000e+00 6.4842677e-02 
-3.7780048e-03 0.0000000e+00 4.6981395e-02 
-3.7780048e-03 0.0000000e+00 4.6981395e-02 
-3.1736998e-03 0.0000000e+00 6.5572767e-02 
-3.1736998e-03 0.0000000e+00 6.5572767e-02 
-3.7204042e-03 0.0000000e+00 4.7269904e-02 
-3.7204042e-03 0.0000000e+00 4.7269904e-02 
-3.0426381e-03 0.0000000e+00 6.6277318e-02 
-3.0426381e-03 0.0000000e+00 6.6277318e-02 
-3.6607057e-03 0.0000000e+00 4.7539043e-02 
-3.6607057e-03 0.0000000e+00 4.7539043e-02 
-2.9077090e-03 0.0000000e+00 6.6956094e-02 
-2.9077090e-03 0.0000000e+00 6.6956094e-02 
-3.5990486e-03 0.0000000e+00 4.7788971e-02 
-2.7691213e-03 0.0000000e+00 6.7609021e-02 
-3.5990486e-03 0.0000000e+00 4.7788971e-02 
-2.7691213e-03 0.0000000e+00 6.7609021e-02 
-2.6271058e-03 0.0000000e+00 6.8236196e-02 
-3.5355673e-03 0.0000000e+00 4.8019821e-02 
-2.6271058e-03 0.0000000e+00 6.8236196e-02 
-3.5355673e-03 0.0000000e+00 4.8019821e-02 
-2.4818652e-03 0.0000000e+00 6.8837542e-02 
-3.4703980e-03 0.0000000e+00 4.8231763e-02 
-2.4818652e-03 0.0000000e+00 6.8837542e-02 
-3.4703980e-03 0.0000000e+00 4.8231763e-02 
-2.3335864e-03 0.0000000e+00 6.9412841e-02 
-2.3335864e-03 0.0000000e+00 6.9412841e-02 
-3.4036710e-03 0.0000000e+00 4.8424954e-02 
-3.4036710e-03 0.0000000e+00 4.8424954e-02 
-2.1824881e-03 0.0000000e+00 6.9962063e-02 
-2.1824881e-03 0.0000000e+00 6.9962063e-02 
-3.3355171e-03 0.0000000e+00 4.8599571e-02 
-3.3355171e-03 0.0000000e+00 4.8599571e-02 
-2.0288076e-03 0.0000000e+00 7.0485351e-02 
-2.0288076e-03 0.0000000e+00 7.0485351e-02 
-3.2660657e-03 0.0000000e+00 4.8755849e-02 
-3.2660657e-03 0.0000000e+00 4.8755849e-02 
-1.8727554e-03 0.0000000e+00 7.0982706e-02 
-1.8727554e-03 0.0000000e+00 7.0982706e-02 
-3.1954368e-03 0.0000000e+00 4.8893926e-02 
-3.1954368e-03 0.0000000e+00 4.8893926e-02 
-1.7145324e-03 0.0000000e+00 7.1453976e-02 
-1.7145324e-03 0.0000000e+00 7.1453976e-02 
-3.1237435e-03 0.0000000e+00 4.9013862e-02 
-3.1237435e-03 0.0000000e+00 4.9013862e-02 
-1.5543597e-03 0.0000000e+00 7.1899154e-02 
-1.5543597e-03 0.0000000e+00 7.1899154e-02 
-3.0511039e-03 0.0000000e+00 4.9115868e-02 
-3.0511039e-03 0.0000000e+00 4.9115868e-02 
-1.3924692e-03 0.0000000e+00 7.2318376e-02 
-1.3924692e-03 0.0000000e+00 7.2318376e-02 
-2.9776390e-03 0.0000000e+00 4.9200287e-02 
-2.9776390e-03 0.0000000e+00 4.9200287e-02 
-1.2290755e-03 0.0000000e+00 7.2711699e-02 
-1.2290755e-03 0.0000000e+00 7.2711699e-02 
-2.9034571e-03 0.0000000e+00 4.9267286e-02 
-2.9034571e-03 0.0000000e+00 4.9267286e-02 
-1.0643905e-03 0.0000000e+00 7.3079091e-02 
-1.0643905e-03 0.0000000e+00 7.3079091e-02 
-2.8286571e-03 0.0000000e+00 4.9316859e-02 
-2.8286571e-03 0.0000000e+00 4.9316859e-02 
-8.9863495e-04 0.0000000e+00 7.3420599e-02 
-8.9863495e-04 0.0000000e+00 7.3420599e-02 
-2.7533450e-03 0.0000000e+00 4.9349192e-02 
-2.7533450e-03 0.0000000e+00 4.9349192e-02 
-7.3203120e-04 0.0000000e+00 7.3736350e-02 
-7.3203120e-04 0.0000000e+00 7.3736350e-02 
-2.6776273e-03 0.0000000e+00 4.9364651e-02 
-2.6776273e-03 0.0000000e+00 4.9364651e-02 
-5.6478920e-04 0.0000000e+00 7.4026428e-02 
-5.6478920e-04 0.0000000e+00 7.4026428e-02 
-2.6015988e-03 0.0000000e+00 4.9363366e-02 
-2.6015988e-03 0.0000000e+00 4.9363366e-02 
-3.9711432e-04 0.0000000e+00 7.4290867e-02 
-3.9711432e-04 0.0000000e+00 7.4290867e-02 
-2.5253509e-03 0.0000000e+00 4.9345294e-02 
-2.5253509e-03 0.0000000e+00 4.9345294e-02 
-2.3003973e-04 0.0000000e+00 7.4528665e-02 
-2.3003973e-04 0.0000000e+00 7.4528665e-02 
-2.4487500e-03 0.0000000e+00 4.9310523e-02 
-2.4487500e-03 0.0000000e+00 4.9310523e-02 
-2.9558042e-05 0.0000000e+00 7.4780854e-02 
-2.9558042e-05 0.0000000e+00 7.4780854e-02 
-2.3567880e-03 0.0000000e+00 4.9247398e-02 
-2.3567880e-03 0.0000000e+00 4.9247398e-02 
2.1055011e-04 0.0000000e+00 7.5035850e-02 
2.1055011e-04 0.0000000e+00 7.5035850e-02 
-2.2465670e-03 0.0000000e+00 4.9141306e-02 
-2.2465670e-03 0.0000000e+00 4.9141306e-02 
4.9720312e-04 0.0000000e+00 7.5273272e-02 
4.9720312e-04 0.0000000e+00 7.5273272e-02 
-2.1161636e-03 0.0000000e+00 4.8972388e-02 
-2.1161636e-03 0.0000000e+00 4.8972388e-02 
7.9640975e-04 0.0000000e+00 7.5443094e-02 
7.9640975e-04 0.0000000e+00 7.5443094e-02 
-1.9867102e-03 0.0000000e+00 4.8757459e-02 
-1.9867102e-03 0.0000000e+00 4.8757459e-02 
1.0915728e-03 0.0000000e+00 7.5531669e-02 
1.0915728e-03 0.0000000e+00 7.5531669e-02 
-1.8585645e-03 0.0000000e+00 4.8497788e-02 
-1.8585645e-03 0.0000000e+00 4.8497788e-02 
1.3816071e-03 0.0000000e+00 7.5540196e-02 
1.3816071e-03 0.0000000e+00 7.5540196e-02 
-1.7320912e-03 0.0000000e+00 4.8193879e-02 
-1.7320912e-03 0.0000000e+00 4.8193879e-02 
1.6654599e-03 0.0000000e+00 7.5469757e-02 
1.6654599e-03 0.0000000e+00 7.5469757e-02 
-1.6076892e-03 0.0000000e+00 4.7845293e-02 
-1.6076892e-03 0.0000000e+00 4.7845293e-02 
1.9421301e-03 0.0000000e+00 7.5321529e-02 
1.9421301e-03 0.0000000e+00 7.5321529e-02 
-1.4857261e-03 0.0000000e+00 4.7452206e-02 
-1.4857261e-03 0.0000000e+00 4.7452206e-02 
2.2106791e-03 0.0000000e+00 7.5096812e-02 
2.2106791e-03 0.0000000e+00 7.5096812e-02 
-1.3665292e-03 0.0000000e+00 4.7015493e-02 
-1.3665292e-03 0.0000000e+00 4.7015493e-02 
2.4702409e-03 0.0000000e+00 7.4797082e-02 
2.4702409e-03 0.0000000e+00 7.4797082e-02 