# vtk DataFile Version 4.0
vtk output
ASCII
DATASET UNSTRUCTURED_GRID
POINTS 824 float
-6.4148600e-05 1.0000000e-02 -4.4525366e-03 
-1.0680180e-04 1.0000000e-02 -2.8088474e-03 
3.4513260e-04 1.0000000e-02 -6.0450544e-03 
1.3803532e-03 1.0000000e-02 -7.3230534e-03 
6.5829700e-05 1.0000000e-02 -1.1736922e-03 
2.7142144e-03 1.0000000e-02 -8.2851896e-03 
5.0392030e-04 1.0000000e-02 6.5784910e-04 
4.1780764e-03 1.0000000e-02 -9.0342357e-03 
1.1628646e-03 1.0000000e-02 2.4220088e-03 
5.7070961e-03 1.0000000e-02 -9.6390187e-03 
2.0046218e-03 1.0000000e-02 4.1066196e-03 
7.2731595e-03 1.0000000e-02 -1.0140047e-02 
-6.4148600e-05 0.0000000e+00 -4.4525366e-03 
-1.0680180e-04 0.0000000e+00 -2.8088474e-03 
3.4513260e-04 0.0000000e+00 -6.0450544e-03 
1.3803532e-03 0.0000000e+00 -7.3230534e-03 
6.5829700e-05 0.0000000e+00 -1.1736922e-03 
2.9952540e-03 1.0000000e-02 5.7082181e-03 
8.8622628e-03 1.0000000e-02 -1.0562311e-02 
2.7142144e-03 0.0000000e+00 -8.2851896e-03 
5.0392030e-04 0.0000000e+00 6.5784910e-04 
4.1780764e-03 0.0000000e+00 -9.0342357e-03 
1.1628646e-03 0.0000000e+00 2.4220088e-03 
1.0466628e-02 1.0000000e-02 -1.0922252e-02 
4.1067238e-03 1.0000000e-02 7.2284501e-03 
5.7070961e-03 0.0000000e+00 -9.6390187e-03 
2.0046218e-03 0.0000000e+00 4.1066196e-03 
7.2731595e-03 0.0000000e+00 -1.0140047e-02 
1.2081579e-02 1.0000000e-02 -1.1231240e-02 
5.3166988e-03 1.0000000e-02 8.6715129e-03 
2.9952540e-03 0.0000000e+00 5.7082181e-03 
8.8622628e-03 0.0000000e+00 -1.0562311e-02 
1.3704120e-02 1.0000000e-02 -1.1497501e-02 
1.0466628e-02 0.0000000e+00 -1.0922252e-02 
4.1067238e-03 0.0000000e+00 7.2284501e-03 
6.6076374e-03 1.0000000e-02 1.0042624e-02 
1.5332244e-02 1.0000000e-02 -1.1727173e-02 
1.2081579e-02 0.0000000e+00 -1.1231240e-02 
5.3166988e-03 0.0000000e+00 8.6715129e-03 
7.9658343e-03 1.0000000e-02 1.1347144e-02 
1.3704120e-02 0.0000000e+00 -1.1497501e-02 
1.6964543e-02 1.0000000e-02 -1.1925002e-02 
6.6076374e-03 0.0000000e+00 1.0042624e-02 
9.3804686e-03 1.0000000e-02 1.2590236e-02 
1.5332244e-02 0.0000000e+00 -1.1727173e-02 
1.8600004e-02 1.0000000e-02 -1.2094716e-02 
7.9658343e-03 0.0000000e+00 1.1347144e-02 
1.6964543e-02 0.0000000e+00 -1.1925002e-02 
1.0843002e-02 1.0000000e-02 1.3776601e-02 
2.0237876e-02 1.0000000e-02 -1.2239318e-02 
9.3804686e-03 0.0000000e+00 1.2590236e-02 
1.8600004e-02 0.0000000e+00 -1.2094716e-02 
1.2346566e-02 1.0000000e-02 1.4910517e-02 
2.1877591e-02 1.0000000e-02 -1.2361246e-02 
1.0843002e-02 0.0000000e+00 1.3776601e-02 
2.0237876e-02 0.0000000e+00 -1.2239318e-02 
1.3885623e-02 1.0000000e-02 1.5995768e-02 
2.3518711e-02 1.0000000e-02 -1.2462540e-02 
1.2346566e-02 0.0000000e+00 1.4910517e-02 
2.1877591e-02 0.0000000e+00 -1.2361246e-02 
2.5160890e-02 1.0000000e-02 -1.2544903e-02 
1.5455654e-02 1.0000000e-02 1.7035707e-02 
1.3885623e-02 0.0000000e+00 1.5995768e-02 
2.3518711e-02 0.0000000e+00 -1.2462540e-02 
2.6803852e-02 1.0000000e-02 -1.2609772e-02 
1.7052912e-02 1.0000000e-02 1.8033321e-02 
2.5160890e-02 0.0000000e+00 -1.2544903e-02 
1.5455654e-02 0.0000000e+00 1.7035707e-02 
2.8447376e-02 1.0000000e-02 -1.2658389e-02 
2.6803852e-02 0.0000000e+00 -1.2609772e-02 
1.7052912e-02 0.0000000e+00 1.8033321e-02 
1.8674284e-02 1.0000000e-02 1.8991246e-02 
3.0091279e-02 1.0000000e-02 -1.2691814e-02 
2.8447376e-02 0.0000000e+00 -1.2658389e-02 
1.8674284e-02 0.0000000e+00 1.8991246e-02 
2.0317149e-02 1.0000000e-02 1.9911822e-02 
3.0091279e-02 0.0000000e+00 -1.2691814e-02 
3.1735410e-02 1.0000000e-02 -1.2710971e-02 
2.0317149e-02 0.0000000e+00 1.9911822e-02 
2.1979295e-02 1.0000000e-02 2.0797113e-02 
3.1735410e-02 0.0000000e+00 -1.2710971e-02 
3.3379643e-02 1.0000000e-02 -1.2716676e-02 
2.1979295e-02 0.0000000e+00 2.0797113e-02 
2.3658832e-02 1.0000000e-02 2.1648949e-02 
3.3379643e-02 0.0000000e+00 -1.2716676e-02 
3.5023871e-02 1.0000000e-02 -1.2709629e-02 
2.3658832e-02 0.0000000e+00 2.1648949e-02 
2.5354100e-02 1.0000000e-02 2.2469029e-02 
3.5023871e-02 0.0000000e+00 -1.2709629e-02 
3.6668001e-02 1.0000000e-02 -1.2690457e-02 
2.5354100e-02 0.0000000e+00 2.2469029e-02 
2.7063712e-02 1.0000000e-02 2.3258772e-02 
3.6668001e-02 0.0000000e+00 -1.2690457e-02 
3.8312016e-02 1.0000000e-02 -1.2663038e-02 
2.7063712e-02 0.0000000e+00 2.3258772e-02 
3.8312016e-02 0.0000000e+00 -1.2663038e-02 
2.8786417e-02 1.0000000e-02 2.4019532e-02 
3.9956032e-02 1.0000000e-02 -1.2635752e-02 
2.8786417e-02 0.0000000e+00 2.4019532e-02 
3.9956032e-02 0.0000000e+00 -1.2635752e-02 
3.0521135e-02 1.0000000e-02 2.4752486e-02 
4.1600048e-02 1.0000000e-02 -1.2608467e-02 
3.0521135e-02 0.0000000e+00 2.4752486e-02 
4.1600048e-02 0.0000000e+00 -1.2608467e-02 
3.2266919e-02 1.0000000e-02 2.5458676e-02 
4.3299814e-02 1.0000000e-02 -1.2580255e-02 
3.2266919e-02 0.0000000e+00 2.5458676e-02 
4.3299814e-02 0.0000000e+00 -1.2580255e-02 
3.4022902e-02 1.0000000e-02 2.6139111e-02 
4.5339533e-02 1.0000000e-02 -1.2546402e-02 
3.4022902e-02 0.0000000e+00 2.6139111e-02 
4.5339533e-02 0.0000000e+00 -1.2546402e-02 
3.5788340e-02 1.0000000e-02 2.6794623e-02 
4.7787196e-02 1.0000000e-02 -1.2505778e-02 
3.5788340e-02 0.0000000e+00 2.6794623e-02 
3.7562554e-02 1.0000000e-02 2.7425996e-02 
4.7787196e-02 0.0000000e+00 -1.2505778e-02 
3.7562554e-02 0.0000000e+00 2.7425996e-02 
3.9344928e-02 1.0000000e-02 2.8033950e-02 
5.0379113e-02 1.0000000e-02 -1.2462760e-02 
3.9344928e-02 0.0000000e+00 2.8033950e-02 
5.0379113e-02 0.0000000e+00 -1.2462760e-02 
4.1134916e-02 1.0000000e-02 2.8619109e-02 
5.2971029e-02 1.0000000e-02 -1.2419741e-02 
4.1134916e-02 0.0000000e+00 2.8619109e-02 
5.2971029e-02 0.0000000e+00 -1.2419741e-02 
4.2932026e-02 1.0000000e-02 2.9182016e-02 
4.2932026e-02 0.0000000e+00 2.9182016e-02 
5.5562946e-02 1.0000000e-02 -1.2376723e-02 
4.5339682e-02 1.0000000e-02 2.9899231e-02 
5.5562946e-02 0.0000000e+00 -1.2376723e-02 
4.5339682e-02 0.0000000e+00 2.9899231e-02 
5.8154863e-02 1.0000000e-02 -1.2333705e-02 
4.7758221e-02 1.0000000e-02 3.0578844e-02 
5.8154863e-02 0.0000000e+00 -1.2333705e-02 
4.7758221e-02 0.0000000e+00 3.0578844e-02 
6.0746779e-02 1.0000000e-02 -1.2290686e-02 
5.0186760e-02 1.0000000e-02 3.1221807e-02 
6.0746779e-02 0.0000000e+00 -1.2290686e-02 
5.0186760e-02 0.0000000e+00 3.1221807e-02 
6.3338696e-02 1.0000000e-02 -1.2247668e-02 
5.2624513e-02 1.0000000e-02 3.1828903e-02 
6.3338696e-02 0.0000000e+00 -1.2247668e-02 
5.2624513e-02 0.0000000e+00 3.1828903e-02 
5.5070762e-02 1.0000000e-02 3.2400804e-02 
6.5930613e-02 1.0000000e-02 -1.2204650e-02 
5.5070762e-02 0.0000000e+00 3.2400804e-02 
6.5930613e-02 0.0000000e+00 -1.2204650e-02 
5.7524847e-02 1.0000000e-02 3.2938082e-02 
6.8522529e-02 1.0000000e-02 -1.2161631e-02 
5.7524847e-02 0.0000000e+00 3.2938082e-02 
6.8522529e-02 0.0000000e+00 -1.2161631e-02 
5.9986169e-02 1.0000000e-02 3.3441170e-02 
7.1114446e-02 1.0000000e-02 -1.2118613e-02 
5.9986169e-02 0.0000000e+00 3.3441170e-02 
7.1114446e-02 0.0000000e+00 -1.2118613e-02 
6.2454163e-02 1.0000000e-02 3.3910436e-02 
6.2454163e-02 0.0000000e+00 3.3910436e-02 
7.3706362e-02 1.0000000e-02 -1.2075595e-02 
7.3706362e-02 0.0000000e+00 -1.2075595e-02 
6.4928303e-02 1.0000000e-02 3.4346139e-02 
6.4928303e-02 0.0000000e+00 3.4346139e-02 
7.6298279e-02 1.0000000e-02 -1.2032577e-02 
7.6298279e-02 0.0000000e+00 -1.2032577e-02 
6.7408092e-02 1.0000000e-02 3.4748446e-02 
6.7408092e-02 0.0000000e+00 3.4748446e-02 
7.8890196e-02 1.0000000e-02 -1.1989558e-02 
7.8890196e-02 0.0000000e+00 -1.1989558e-02 
6.9893057e-02 1.0000000e-02 3.5117436e-02 
6.9893057e-02 0.0000000e+00 3.5117436e-02 
8.1482112e-02 1.0000000e-02 -1.1946540e-02 
8.1482112e-02 0.0000000e+00 -1.1946540e-02 
7.2382742e-02 1.0000000e-02 3.5453098e-02 
7.2382742e-02 0.0000000e+00 3.5453098e-02 
8.4074029e-02 1.0000000e-02 -1.1903522e-02 
7.4876707e-02 1.0000000e-02 3.5755332e-02 
8.4074029e-02 0.0000000e+00 -1.1903522e-02 
7.4876707e-02 0.0000000e+00 3.5755332e-02 
8.6665946e-02 1.0000000e-02 -1.1860503e-02 
7.7374516e-02 1.0000000e-02 3.6023948e-02 
8.6665946e-02 0.0000000e+00 -1.1860503e-02 
7.7374516e-02 0.0000000e+00 3.6023948e-02 
8.9257862e-02 1.0000000e-02 -1.1817485e-02 
7.9875738e-02 1.0000000e-02 3.6258665e-02 
8.9257862e-02 0.0000000e+00 -1.1817485e-02 
7.9875738e-02 0.0000000e+00 3.6258665e-02 
8.2379940e-02 1.0000000e-02 3.6459105e-02 
9.1849779e-02 1.0000000e-02 -1.1774467e-02 
8.2379940e-02 0.0000000e+00 3.6459105e-02 
9.1849779e-02 0.0000000e+00 -1.1774467e-02 
8.4886681e-02 1.0000000e-02 3.6624786e-02 
9.4441696e-02 1.0000000e-02 -1.1731448e-02 
8.4886681e-02 0.0000000e+00 3.6624786e-02 
9.4441696e-02 0.0000000e+00 -1.1731448e-02 
8.7395510e-02 1.0000000e-02 3.6755108e-02 
8.7395510e-02 0.0000000e+00 3.6755108e-02 
9.7033612e-02 1.0000000e-02 -1.1688430e-02 
9.7033612e-02 0.0000000e+00 -1.1688430e-02 
8.9905951e-02 1.0000000e-02 3.6849401e-02 
8.9905951e-02 0.0000000e+00 3.6849401e-02 
9.9625529e-02 1.0000000e-02 -1.1645412e-02 
9.9625529e-02 0.0000000e+00 -1.1645412e-02 
9.2417505e-02 1.0000000e-02 3.6906832e-02 
9.2417505e-02 0.0000000e+00 3.6906832e-02 
1.0221745e-01 1.0000000e-02 -1.1602393e-02 
1.0221745e-01 0.0000000e+00 -1.1602393e-02 
9.4929640e-02 1.0000000e-02 3.6926425e-02 
9.4929640e-02 0.0000000e+00 3.6926425e-02 
1.0480936e-01 1.0000000e-02 -1.1559375e-02 
1.0480936e-01 0.0000000e+00 -1.1559375e-02 
9.7441776e-02 1.0000000e-02 3.6907077e-02 
9.7441776e-02 0.0000000e+00 3.6907077e-02 
1.0740128e-01 1.0000000e-02 -1.1516357e-02 
1.0740128e-01 0.0000000e+00 -1.1516357e-02 
9.9953281e-02 1.0000000e-02 3.6847529e-02 
9.9953281e-02 0.0000000e+00 3.6847529e-02 
1.0999320e-01 1.0000000e-02 -1.1473339e-02 
1.0246345e-01 1.0000000e-02 3.6746314e-02 
1.0999320e-01 0.0000000e+00 -1.1473339e-02 
1.0246345e-01 0.0000000e+00 3.6746314e-02 
1.0497150e-01 1.0000000e-02 3.6601738e-02 
1.1258511e-01 1.0000000e-02 -1.1430320e-02 
1.0497150e-01 0.0000000e+00 3.6601738e-02 
1.1258511e-01 0.0000000e+00 -1.1430320e-02 
1.0747666e-01 1.0000000e-02 3.6413638e-02 
1.1517703e-01 1.0000000e-02 -1.1387302e-02 
1.0747666e-01 0.0000000e+00 3.6413638e-02 
[...]
POINT_DATA 824
FIELD FieldData 2
DISPLACEMENT 3 824  float
0.0000000e+00 0.0000000e+00 0.0000000e+00 
0.0000000e+00 0.0000000e+00 0.0000000e+00 
0.0000000e+00 0.0000000e+00 0.0000000e+00 
0.0000000e+00 0.0000000e+00 0.0000000e+00 
0.0000000e+00 0.0000000e+00 0.0000000e+00 
0.0000000e+00 0.0000000e+00 0.0000000e+00 
0.0000000e+00 0.0000000e+00 0.0000000e+00 
0.0000000e+00 0.0000000e+00 0.0000000e+00 
0.0000000e+00 0.0000000e+00 0.0000000e+00 
0.0000000e+00 0.0000000e+00 0.0000000e+00 
0.0000000e+00 0.0000000e+00 0.0000000e+00 
0.0000000e+00 0.0000000e+00 0.0000000e+00 
0.0000000e+00 0.0000000e+00 0.0000000e+00 
0.0000000e+00 0.0000000e+00 0.0000000e+00 
0.0000000e+00 0.0000000e+00 0.0000000e+00 
0.0000000e+00 0.0000000e+00 0.0000000e+00 
0.0000000e+00 0.0000000e+00 0.0000000e+00 
0.0000000e+00 0.0000000e+00 0.0000000e+00 
0.0000000e+00 0.0000000e+00 0.0000000e+00 
0.0000000e+00 0.0000000e+00 0.0000000e+00 
0.0000000e+00 0.0000000e+00 0.0000000e+00 
0.0000000e+00 0.0000000e+00 0.0000000e+00 
0.0000000e+00 0.0000000e+00 0.0000000e+00 
0.0000000e+00 0.0000000e+00 0.0000000e+00 
0.0000000e+00 0.0000000e+00 0.0000000e+00 
0.0000000e+00 0.0000000e+00 0.0000000e+00 
0.0000000e+00 0.0000000e+00 0.0000000e+00 
0.0000000e+00 0.0000000e+00 0.0000000e+00 
0.0000000e+00 0.0000000e+00 0.0000000e+00 
0.0000000e+00 0.0000000e+00 0.0000000e+00 
0.0000000e+00 0.0000000e+00 0.0000000e+00 
0.0000000e+00 0.0000000e+00 0.0000000e+00 
0.0000000e+00 0.0000000e+00 0.0000000e+00 
0.0000000e+00 0.0000000e+00 0.0000000e+00 
0.0000000e+00 0.0000000e+00 0.0000000e+00 
0.0000000e+00 0.0000000e+00 0.0000000e+00 
0.0000000e+00 0.0000000e+00 0.0000000e+00 
0.0000000e+00 0.0000000e+00 0.0000000e+00 
0.0000000e+00 0.0000000e+00 0.0000000e+00 
0.0000000e+00 0.0000000e+00 0.0000000e+00 
0.0000000e+00 0.0000000e+00 0.0000000e+00 
0.0000000e+00 0.0000000e+00 0.0000000e+00 
0.0000000e+00 0.0000000e+00 0.0000000e+00 
0.0000000e+00 0.0000000e+00 0.0000000e+00 
0.0000000e+00 0.0000000e+00 0.0000000e+00 
0.0000000e+00 0.0000000e+00 0.0000000e+00 
0.0000000e+00 0.0000000e+00 0.0000000e+00 
0.0000000e+00 0.0000000e+00 0.0000000e+00 
0.0000000e+00 0.0000000e+00 0.0000000e+00 
0.0000000e+00 0.0000000e+00 0.0000000e+00 
0.0000000e+00 0.0000000e+00 0.0000000e+00 
0.0000000e+00 0.0000000e+00 0.0000000e+00 
0.0000000e+00 0.0000000e+00 0.0000000e+00 
0.0000000e+00 0.0000000e+00 0.0000000e+00 
0.0000000e+00 0.0000000e+00 0.0000000e+00 
0.0000000e+00 0.0000000e+00 0.0000000e+00 
0.0000000e+00 0.0000000e+00 0.0000000e+00 
0.0000000e+00 0.0000000e+00 0.0000000e+00 
0.0000000e+00 0.0000000e+00 0.0000000e+00 
0.0000000e+00 0.0000000e+00 0.0000000e+00 
0.0000000e+00 0.0000000e+00 0.0000000e+00 
0.0000000e+00 0.0000000e+00 0.0000000e+00 
0.0000000e+00 0.0000000e+00 0.0000000e+00 
0.0000000e+00 0.0000000e+00 0.0000000e+00 
0.0000000e+00 0.0000000e+00 0.0000000e+00 
0.0000000e+00 0.0000000e+00 0.0000000e+00 
0.0000000e+00 0.0000000e+00 0.0000000e+00 
0.0000000e+00 0.0000000e+00 0.0000000e+00 
0.0000000e+00 0.0000000e+00 0.0000000e+00 
0.0000000e+00 0.0000000e+00 0.0000000e+00 
0.0000000e+00 0.0000000e+00 0.0000000e+00 
0.0000000e+00 0.0000000e+00 0.0000000e+00 
0.0000000e+00 0.0000000e+00 0.0000000e+00 
0.0000000e+00 0.0000000e+00 0.0000000e+00 
0.0000000e+00 0.0000000e+00 0.0000000e+00 
0.0000000e+00 0.0000000e+00 0.0000000e+00 
0.0000000e+00 0.0000000e+00 0.0000000e+00 
0.0000000e+00 0.0000000e+00 0.0000000e+00 
0.0000000e+00 0.0000000e+00 0.0000000e+00 
0.0000000e+00 0.0000000e+00 0.0000000e+00 
0.0000000e+00 0.0000000e+00 0.0000000e+00 
0.0000000e+00 0.0000000e+00 0.0000000e+00 
0.0000000e+00 0.0000000e+00 0.0000000e+00 
0.0000000e+00 0.0000000e+00 0.0000000e+00 
0.0000000e+00 0.0000000e+00 0.0000000e+00 
0.0000000e+00 0.0000000e+00 0.0000000e+00 
0.0000000e+00 0.0000000e+00 0.0000000e+00 
0.0000000e+00 0.0000000e+00 0.0000000e+00 
0.0000000e+00 0.0000000e+00 0.0000000e+00 
0.0000000e+00 0.0000000e+00 0.0000000e+00 
0.0000000e+00 0.0000000e+00 0.0000000e+00 
0.0000000e+00 0.0000000e+00 0.0000000e+00 
0.0000000e+00 0.0000000e+00 0.0000000e+00 
0.0000000e+00 0.0000000e+00 0.0000000e+00 
0.0000000e+00 0.0000000e+00 0.0000000e+00 
0.0000000e+00 0.0000000e+00 0.0000000e+00 
0.0000000e+00 0.0000000e+00 0.0000000e+00 
-6.1389798e-06 0.0000000e+00 -2.2445240e-04 
0.0000000e+00 0.0000000e+00 0.0000000e+00 
-6.1389798e-06 0.0000000e+00 -2.2445240e-04 
0.0000000e+00 0.0000000e+00 0.0000000e+00 
-1.2133696e-05 0.0000000e+00 -4.4754217e-04 
0.0000000e+00 0.0000000e+00 0.0000000e+00 
-1.2133696e-05 0.0000000e+00 -4.4754217e-04 
0.0000000e+00 0.0000000e+00 0.0000000e+00 
-1.8178739e-05 0.0000000e+00 -6.7674164e-04 
0.0000000e+00 0.0000000e+00 0.0000000e+00 
-1.8178739e-05 0.0000000e+00 -6.7674164e-04 
0.0000000e+00 0.0000000e+00 0.0000000e+00 
-2.5228909e-05 0.0000000e+00 -9.4981619e-04 
0.0000000e+00 0.0000000e+00 0.0000000e+00 
-2.5228909e-05 0.0000000e+00 -9.4981619e-04 
0.0000000e+00 0.0000000e+00 0.0000000e+00 
-3.3389428e-05 0.0000000e+00 -1.2745742e-03 
0.0000000e+00 0.0000000e+00 0.0000000e+00 
0.0000000e+00 0.0000000e+00 0.0000000e+00 
-3.3389428e-05 0.0000000e+00 -1.2745742e-03 
0.0000000e+00 0.0000000e+00 0.0000000e+00 
8.6433048e-05 0.0000000e+00 -8.0318332e-04 
-4.1665520e-05 0.0000000e+00 -1.6148342e-03 
8.6433048e-05 0.0000000e+00 -8.0318332e-04 
-4.1665520e-05 0.0000000e+00 -1.6148342e-03 
1.6478109e-04 0.0000000e+00 -1.5896225e-03 
-4.9570118e-05 0.0000000e+00 -1.9513378e-03 
1.6478109e-04 0.0000000e+00 -1.5896225e-03 
-4.9570118e-05 0.0000000e+00 -1.9513378e-03 
2.3552359e-04 0.0000000e+00 -2.3597073e-03 
2.3552359e-04 0.0000000e+00 -2.3597073e-03 
-5.7115815e-05 0.0000000e+00 -2.2841521e-03 
3.1882683e-04 0.0000000e+00 -3.3621971e-03 
-5.7115815e-05 0.0000000e+00 -2.2841521e-03 
3.1882683e-04 0.0000000e+00 -3.3621971e-03 
-6.4302929e-05 0.0000000e+00 -2.6132393e-03 
3.9035971e-04 0.0000000e+00 -4.3368315e-03 
-6.4302929e-05 0.0000000e+00 -2.6132393e-03 
3.9035971e-04 0.0000000e+00 -4.3368315e-03 
-7.1119847e-05 0.0000000e+00 -2.9384337e-03 
4.5101316e-04 0.0000000e+00 -5.2839970e-03 
-7.1119847e-05 0.0000000e+00 -2.9384337e-03 
4.5101316e-04 0.0000000e+00 -5.2839970e-03 
-7.7564686e-05 0.0000000e+00 -3.2596479e-03 
5.0159930e-04 0.0000000e+00 -6.2038208e-03 
-7.7564686e-05 0.0000000e+00 -3.2596479e-03 
5.0159930e-04 0.0000000e+00 -6.2038208e-03 
5.4288348e-04 0.0000000e+00 -7.0962368e-03 
-8.3648965e-05 0.0000000e+00 -3.5769407e-03 
5.4288348e-04 0.0000000e+00 -7.0962368e-03 
-8.3648965e-05 0.0000000e+00 -3.5769407e-03 
5.7555502e-04 0.0000000e+00 -7.9613141e-03 
-8.9375785e-05 0.0000000e+00 -3.8903035e-03 
5.7555502e-04 0.0000000e+00 -7.9613141e-03 
-8.9375785e-05 0.0000000e+00 -3.8903035e-03 
6.0022175e-04 0.0000000e+00 -8.7991797e-03 
-9.4734908e-05 0.0000000e+00 -4.1995739e-03 
6.0022175e-04 0.0000000e+00 -8.7991797e-03 
-9.4734908e-05 0.0000000e+00 -4.1995739e-03 
6.1748170e-04 0.0000000e+00 -9.6096990e-03 
6.1748170e-04 0.0000000e+00 -9.6096990e-03 
-9.9723197e-05 0.0000000e+00 -4.5046416e-03 
-9.9723197e-05 0.0000000e+00 -4.5046416e-03 
6.2791756e-04 0.0000000e+00 -1.0392503e-02 
6.2791756e-04 0.0000000e+00 -1.0392503e-02 
-1.0435118e-04 0.0000000e+00 -4.8055480e-03 
-1.0435118e-04 0.0000000e+00 -4.8055480e-03 
6.3205985e-04 0.0000000e+00 -1.1147361e-02 
6.3205985e-04 0.0000000e+00 -1.1147361e-02 
-1.0862276e-04 0.0000000e+00 -5.1022849e-03 
-1.0862276e-04 0.0000000e+00 -5.1022849e-03 
6.3039535e-04 0.0000000e+00 -1.1874112e-02 
6.3039535e-04 0.0000000e+00 -1.1874112e-02 
-1.1252991e-04 0.0000000e+00 -5.3946965e-03 
-1.1252991e-04 0.0000000e+00 -5.3946965e-03 
6.2342160e-04 0.0000000e+00 -1.2572288e-02 
6.2342160e-04 0.0000000e+00 -1.2572288e-02 
-1.1607116e-04 0.0000000e+00 -5.6826756e-03 
6.1164812e-04 0.0000000e+00 -1.3241183e-02 
-1.1607116e-04 0.0000000e+00 -5.6826756e-03 
6.1164812e-04 0.0000000e+00 -1.3241183e-02 
-1.1925649e-04 0.0000000e+00 -5.9662511e-03 
5.9555071e-04 0.0000000e+00 -1.3880229e-02 
-1.1925649e-04 0.0000000e+00 -5.9662511e-03 
5.9555071e-04 0.0000000e+00 -1.3880229e-02 
-1.2209230e-04 0.0000000e+00 -6.2454340e-03 
5.7558071e-04 0.0000000e+00 -1.4488925e-02 
-1.2209230e-04 0.0000000e+00 -6.2454340e-03 
5.7558071e-04 0.0000000e+00 -1.4488925e-02 
5.5222249e-04 0.0000000e+00 -1.5066447e-02 
-1.2457632e-04 0.0000000e+00 -6.5201276e-03 
5.5222249e-04 0.0000000e+00 -1.5066447e-02 
-1.2457632e-04 0.0000000e+00 -6.5201276e-03 
5.2599168e-04 0.0000000e+00 -1.5611718e-02 
-1.2670880e-04 0.0000000e+00 -6.7902320e-03 
5.2599168e-04 0.0000000e+00 -1.5611718e-02 
-1.2670880e-04 0.0000000e+00 -6.7902320e-03 
4.9738839e-04 0.0000000e+00 -1.6123768e-02 
4.9738839e-04 0.0000000e+00 -1.6123768e-02 
-1.2849753e-04 0.0000000e+00 -7.0557386e-03 
-1.2849753e-04 0.0000000e+00 -7.0557386e-03 
4.6691265e-04 0.0000000e+00 -1.6601711e-02 
4.6691265e-04 0.0000000e+00 -1.6601711e-02 
-1.2994959e-04 0.0000000e+00 -7.3166618e-03 
-1.2994959e-04 0.0000000e+00 -7.3166618e-03 
4.3512177e-04 0.0000000e+00 -1.7044265e-02 
4.3512177e-04 0.0000000e+00 -1.7044265e-02 
-1.3106651e-04 0.0000000e+00 -7.5729393e-03 
-1.3106651e-04 0.0000000e+00 -7.5729393e-03 
4.0263430e-04 0.0000000e+00 -1.7449828e-02 
4.0263430e-04 0.0000000e+00 -1.7449828e-02 
-1.3184958e-04 0.0000000e+00 -7.8244665e-03 
-1.3184958e-04 0.0000000e+00 -7.8244665e-03 
3.7007812e-04 0.0000000e+00 -1.7816936e-02 
3.7007812e-04 0.0000000e+00 -1.7816936e-02 
-1.3230498e-04 0.0000000e+00 -8.0712092e-03 
-1.3230498e-04 0.0000000e+00 -8.0712092e-03 
3.3810646e-04 0.0000000e+00 -1.8144182e-02 
3.3810646e-04 0.0000000e+00 -1.8144182e-02 
-1.3244102e-04 0.0000000e+00 -8.3131899e-03 
3.0747431e-04 0.0000000e+00 -1.8429723e-02 
-1.3244102e-04 0.0000000e+00 -8.3131899e-03 
3.0747431e-04 0.0000000e+00 -1.8429723e-02 
2.7904924e-04 0.0000000e+00 -1.8671307e-02 
-1.3226313e-04 0.0000000e+00 -8.5503904e-03 
2.7904924e-04 0.0000000e+00 -1.8671307e-02 
-1.3226313e-04 0.0000000e+00 -8.5503904e-03 
2.5365018e-04 0.0000000e+00 -1.8868383e-02 
-1.3177452e-04 0.0000000e+00 -8.7827234e-03 
2.5365018e-04 0.0000000e+00 -1.8868383e-02 
-1.3177452e-04 0.0000000e+00 -8.7827234e-03 
2.2938942e-04 0.0000000e+00 -1.9051841e-02 
2.2938942e-04 0.0000000e+00 -1.9051841e-02 
-1.3097986e-04 0.0000000e+00 -9.0101208e-03 
-1.3097986e-04 0.0000000e+00 -9.0101208e-03 
2.0537435e-04 0.0000000e+00 -1.9233544e-02 
2.0537435e-04 0.0000000e+00 -1.9233544e-02 
-1.2988670e-04 0.0000000e+00 -9.2325826e-03 
-1.2988670e-04 0.0000000e+00 -9.2325826e-03 
1.8165582e-04 0.0000000e+00 -1.9413118e-02 
1.8165582e-04 0.0000000e+00 -1.9413118e-02 
-1.2850258e-04 0.0000000e+00 -9.4501078e-03 
-1.2850258e-04 0.0000000e+00 -9.4501078e-03 
1.5826323e-04 0.0000000e+00 -1.9590336e-02 
1.5826323e-04 0.0000000e+00 -1.9590336e-02 
-1.2683193e-04 0.0000000e+00 -9.6626162e-03 
-1.2683193e-04 0.0000000e+00 -9.6626162e-03 
1.3522223e-04 0.0000000e+00 -1.9765002e-02 
1.3522223e-04 0.0000000e+00 -1.9765002e-02 
-1.2487859e-04 0.0000000e+00 -9.8700093e-03 
-1.2487859e-04 0.0000000e+00 -9.8700093e-03 
1.1255679e-04 0.0000000e+00 -1.9936923e-02 
1.1255679e-04 0.0000000e+00 -1.9936923e-02 
-1.2265082e-04 0.0000000e+00 -1.0072285e-02 
9.0287065e-05 0.0000000e+00 -2.0105938e-02 
-1.2265082e-04 0.0000000e+00 -1.0072285e-02 
9.0287065e-05 0.0000000e+00 -2.0105938e-02 
6.8431685e-05 0.0000000e+00 -2.0271891e-02 
-1.2015849e-04 0.0000000e+00 -1.0269478e-02 
6.8431685e-05 0.0000000e+00 -2.0271891e-02 
-1.2015849e-04 0.0000000e+00 -1.0269478e-02 
4.7010660e-05 0.0000000e+00 -2.0434612e-02 
-1.1740661e-04 0.0000000e+00 -1.0461498e-02 
4.7010660e-05 0.0000000e+00 -2.0434612e-02 
-1.1740661e-04 0.0000000e+00 -1.0461498e-02 
2.6043309e-05 0.0000000e+00 -2.0593930e-02 
2.6043309e-05 0.0000000e+00 -2.0593930e-02 
-1.1439796e-04 0.0000000e+00 -1.0648204e-02 
-1.1439796e-04 0.0000000e+00 -1.0648204e-02 
5.5444649e-06 0.0000000e+00 -2.0749707e-02 
5.5444649e-06 0.0000000e+00 -2.0749707e-02 
-1.1114159e-04 0.0000000e+00 -1.0829588e-02 
-1.1114159e-04 0.0000000e+00 -1.0829588e-02 
-1.4473244e-05 0.0000000e+00 -2.0901816e-02 
-1.4473244e-05 0.0000000e+00 -2.0901816e-02 
-1.0764964e-04 0.0000000e+00 -1.1005716e-02 
-1.0764964e-04 0.0000000e+00 -1.1005716e-02 
-3.3997297e-05 0.0000000e+00 -2.1050127e-02 
-3.3997297e-05 0.0000000e+00 -2.1050127e-02 
-1.0392861e-04 0.0000000e+00 -1.1176512e-02 
-1.0392861e-04 0.0000000e+00 -1.1176512e-02 
-5.3015792e-05 0.0000000e+00 -2.1194510e-02 
-5.3015792e-05 0.0000000e+00 -2.1194510e-02 
-9.9982345e-05 0.0000000e+00 -1.1341816e-02 
-9.9982345e-05 0.0000000e+00 -1.1341816e-02 
-7.1520502e-05 0.0000000e+00 -2.1334862e-02 
-7.1520502e-05 0.0000000e+00 -2.1334862e-02 
-9.5820142e-05 0.0000000e+00 -1.1501613e-02 
-9.5820142e-05 0.0000000e+00 -1.1501613e-02 
-8.9505254e-05 0.0000000e+00 -2.1471092e-02 
-8.9505254e-05 0.0000000e+00 -2.1471092e-02 
-9.1454228e-05 0.0000000e+00 -1.1655965e-02 
-9.1454228e-05 0.0000000e+00 -1.1655965e-02 
-1.0696267e-04 0.0000000e+00 -2.1603096e-02 
-1.0696267e-04 0.0000000e+00 -2.1603096e-02 
-8.6892997e-05 0.0000000e+00 -1.1804812e-02 
-1.2388690e-04 0.0000000e+00 -2.1730775e-02 
-8.6892997e-05 0.0000000e+00 -1.1804812e-02 
-1.2388690e-04 0.0000000e+00 -2.1730775e-02 
-8.2142516e-05 0.0000000e+00 -1.1948011e-02 
-1.4027398e-04 0.0000000e+00 -2.1854048e-02 
-8.2142516e-05 0.0000000e+00 -1.1948011e-02 
-1.4027398e-04 0.0000000e+00 -2.1854048e-02 
-1.5612122e-04 0.0000000e+00 -2.1972836e-02 
-7.7212345e-05 0.0000000e+00 -1.2085526e-02 
-1.5612122e-04 0.0000000e+00 -2.1972836e-02 
-7.7212345e-05 0.0000000e+00 -1.2085526e-02 
-1.7142641e-04 0.0000000e+00 -2.2087064e-02 
-1.7142641e-04 0.0000000e+00 -2.2087064e-02 
-7.2114554e-05 0.0000000e+00 -1.2217396e-02 
-7.2114554e-05 0.0000000e+00 -1.2217396e-02 
-1.8618987e-04 0.0000000e+00 -2.2196672e-02 
-1.8618987e-04 0.0000000e+00 -2.2196672e-02 
-6.6859492e-05 0.0000000e+00 -1.2343588e-02 
-6.6859492e-05 0.0000000e+00 -1.2343588e-02 
-2.0041305e-04 0.0000000e+00 -2.2301612e-02 
-2.0041305e-04 0.0000000e+00 -2.2301612e-02 
-6.1456054e-05 0.0000000e+00 -1.2464011e-02 
-6.1456054e-05 0.0000000e+00 -1.2464011e-02 
-2.1409485e-04 0.0000000e+00 -2.2401810e-02 
-2.1409485e-04 0.0000000e+00 -2.2401810e-02 
-5.5914896e-05 0.0000000e+00 -1.2578638e-02 
-5.5914896e-05 0.0000000e+00 -1.2578638e-02 
-2.2723670e-04 0.0000000e+00 -2.2497209e-02 
-2.2723670e-04 0.0000000e+00 -2.2497209e-02 
-5.0247879e-05 0.0000000e+00 -1.2687489e-02 
-5.0247879e-05 0.0000000e+00 -1.2687489e-02 
-2.3984409e-04 0.0000000e+00 -2.2587785e-02 
-2.3984409e-04 0.0000000e+00 -2.2587785e-02 
-4.4466014e-05 0.0000000e+00 -1.2790537e-02 
-4.4466014e-05 0.0000000e+00 -1.2790537e-02 
-2.5192140e-04 0.0000000e+00 -2.2673507e-02 
-2.5192140e-04 0.0000000e+00 -2.2673507e-02 
-3.8580109e-05 0.0000000e+00 -1.2887731e-02 
-3.8580109e-05 0.0000000e+00 -1.2887731e-02 
-2.6346897e-04 0.0000000e+00 -2.2754302e-02 
-2.6346897e-04 0.0000000e+00 -2.2754302e-02 
-3.2601879e-05 0.0000000e+00 -1.2979058e-02 
-3.2601879e-05 0.0000000e+00 -1.2979058e-02 
-2.7449060e-04 0.0000000e+00 -2.2830126e-02 
-2.7449060e-04 0.0000000e+00 -2.2830126e-02 
-2.6543231e-05 0.0000000e+00 -1.3064529e-02 
-2.6543231e-05 0.0000000e+00 -1.3064529e-02 
-2.8499565e-04 0.0000000e+00 -2.2900984e-02 
-2.8499565e-04 0.0000000e+00 -2.2900984e-02 
-2.0415955e-05 0.0000000e+00 -1.3144138e-02 
-2.0415955e-05 0.0000000e+00 -1.3144138e-02 
-2.9498919e-04 0.0000000e+00 -2.2966844e-02 
-2.9498919e-04 0.0000000e+00 -2.2966844e-02 
-1.4231856e-05 0.0000000e+00 -1.3217866e-02 
-1.4231856e-05 0.0000000e+00 -1.3217866e-02 
-3.0447129e-04 0.0000000e+00 -2.3027624e-02 
-3.0447129e-04 0.0000000e+00 -2.3027624e-02 
-8.0026492e-06 0.0000000e+00 -1.3285700e-02 
-3.1344672e-04 0.0000000e+00 -2.3083278e-02 
-8.0026492e-06 0.0000000e+00 -1.3285700e-02 
-3.1344672e-04 0.0000000e+00 -2.3083278e-02 
-3.2192796e-04 0.0000000e+00 -2.3133838e-02 
-1.7402746e-06 0.0000000e+00 -1.3347639e-02 
-3.2192796e-04 0.0000000e+00 -2.3133838e-02 
-1.7402746e-06 0.0000000e+00 -1.3347639e-02 
-3.2992134e-04 0.0000000e+00 -2.3179277e-02 
4.5431906e-06 0.0000000e+00 -1.3403719e-02 
-3.2992134e-04 0.0000000e+00 -2.3179277e-02 
4.5431906e-06 0.0000000e+00 -1.3403719e-02 
-3.3742688e-04 0.0000000e+00 -2.3219500e-02 
-3.3742688e-04 0.0000000e+00 -2.3219500e-02 
1.0835911e-05 0.0000000e+00 -1.3453982e-02 
1.0835911e-05 0.0000000e+00 -1.3453982e-02 
-3.4445096e-04 0.0000000e+00 -2.3254468e-02 
-3.4445096e-04 0.0000000e+00 -2.3254468e-02 
1.7126067e-05 0.0000000e+00 -1.3498427e-02 
1.7126067e-05 0.0000000e+00 -1.3498427e-02 
-3.5100718e-04 0.0000000e+00 -2.3284222e-02 
-3.5100718e-04 0.0000000e+00 -2.3284222e-02 
2.3401891e-05 0.0000000e+00 -1.3537051e-02 
2.3401891e-05 0.0000000e+00 -1.3537051e-02 
-3.5710531e-04 0.0000000e+00 -2.3308770e-02 
-3.5710531e-04 0.0000000e+00 -2.3308770e-02 
2.9652061e-05 0.0000000e+00 -1.3569915e-02 
2.9652061e-05 0.0000000e+00 -1.3569915e-02 
-3.6274726e-04 0.0000000e+00 -2.3328027e-02 
-3.6274726e-04 0.0000000e+00 -2.3328027e-02 
3.5865904e-05 0.0000000e+00 -1.3597116e-02 
3.5865904e-05 0.0000000e+00 -1.3597116e-02 
-3.6793890e-04 0.0000000e+00 -2.3341941e-02 
-3.6793890e-04 0.0000000e+00 -2.3341941e-02 
4.2032562e-05 0.0000000e+00 -1.3618679e-02 
4.2032562e-05 0.0000000e+00 -1.3618679e-02 
-3.7269186e-04 0.0000000e+00 -2.3350527e-02 
-3.7269186e-04 0.0000000e+00 -2.3350527e-02 
4.8140803e-05 0.0000000e+00 -1.3634586e-02 
4.8140803e-05 0.0000000e+00 -1.3634586e-02 
-3.7701668e-04 0.0000000e+00 -2.3353797e-02 
-3.7701668e-04 0.0000000e+00 -2.3353797e-02 
5.4180688e-05 0.0000000e+00 -1.3644916e-02 
5.4180688e-05 0.0000000e+00 -1.3644916e-02 
-3.8091945e-04 0.0000000e+00 -2.3351705e-02 
-3.8091945e-04 0.0000000e+00 -2.3351705e-02 
6.0143657e-05 0.0000000e+00 -1.3649801e-02 
6.0143657e-05 0.0000000e+00 -1.3649801e-02 
-3.8440740e-04 0.0000000e+00 -2.3344207e-02 
-3.8440740e-04 0.0000000e+00 -2.3344207e-02 
6.6020028e-05 0.0000000e+00 -1.3649286e-02 
6.6020028e-05 0.0000000e+00 -1.3649286e-02 
-3.8749189e-04 0.0000000e+00 -2.3331314e-02 
-3.8749189e-04 0.0000000e+00 -2.3331314e-02 
7.1799550e-05 0.0000000e+00 -1.3643372e-02 
7.1799550e-05 0.0000000e+00 -1.3643372e-02 
-3.9018380e-04 0.0000000e+00 -2.3313039e-02 
-3.9018380e-04 0.0000000e+00 -2.3313039e-02 
7.7474445e-05 0.0000000e+00 -1.3632162e-02 
7.7474445e-05 0.0000000e+00 -1.3632162e-02 
-3.9249149e-04 0.0000000e+00 -2.3289364e-02 
-3.9249149e-04 0.0000000e+00 -2.3289364e-02 
8.3038791e-05 0.0000000e+00 -1.3615815e-02 
8.3038791e-05 0.0000000e+00 -1.3615815e-02 
-3.9441435e-04 0.0000000e+00 -2.3260402e-02 
-3.9441435e-04 0.0000000e+00 -2.3260402e-02 
8.8500958e-05 0.0000000e+00 -1.3594327e-02 
8.8500958e-05 0.0000000e+00 -1.3594327e-02 
-3.9624560e-04 0.0000000e+00 -2.3218548e-02 
-3.9624560e-04 0.0000000e+00 -2.3218548e-02 
9.4886104e-05 0.0000000e+00 -1.3561808e-02 
9.4886104e-05 0.0000000e+00 -1.3561808e-02 
-3.9778225e-04 0.0000000e+00 -2.3158133e-02 
-3.9778225e-04 0.0000000e+00 -2.3158133e-02 
1.0228877e-04 0.0000000e+00 -1.3513257e-02 
1.0228877e-04 0.0000000e+00 -1.3513257e-02 
-3.9871028e-04 0.0000000e+00 -2.3070884e-02 
-3.9871028e-04 0.0000000e+00 -2.3070884e-02 
1.1069165e-04 0.0000000e+00 -1.3442476e-02 
1.1069165e-04 0.0000000e+00 -1.3442476e-02 
-3.9866334e-04 0.0000000e+00 -2.2961497e-02 
-3.9866334e-04 0.0000000e+00 -2.2961497e-02 
1.1864356e-04 0.0000000e+00 -1.3357813e-02 
1.1864356e-04 0.0000000e+00 -1.3357813e-02 
-3.9763667e-04 0.0000000e+00 -2.2834402e-02 
-3.9763667e-04 0.0000000e+00 -2.2834402e-02 
1.2611924e-04 0.0000000e+00 -1.3259609e-02 
1.2611924e-04 0.0000000e+00 -1.3259609e-02 
-3.9570072e-04 0.0000000e+00 -2.2689789e-02 
-3.9570072e-04 0.0000000e+00 -2.2689789e-02 
1.3309646e-04 0.0000000e+00 -1.3148244e-02 
1.3309646e-04 0.0000000e+00 -1.3148244e-02 
-3.9291815e-04 0.0000000e+00 -2.2527717e-02 
-3.9291815e-04 0.0000000e+00 -2.2527717e-02 
1.3955891e-04 0.0000000e+00 -1.3024169e-02 
1.3955891e-04 0.0000000e+00 -1.3024169e-02 
-3.8935300e-04 0.0000000e+00 -2.2348285e-02 
-3.8935300e-04 0.0000000e+00 -2.2348285e-02 
1.4549596e-04 0.0000000e+00 -1.2887852e-02 
1.4549596e-04 0.0000000e+00 -1.2887852e-02 