# vtk DataFile Version 4.0
vtk output
ASCII
DATASET UNSTRUCTURED_GRID
POINTS 824 float
-6.4148600e-05 1.0000000e-02 -4.4525366e-03 
-1.0680180e-04 1.0000000e-02 -2.8088474e-03 
3.4513260e-04 1.0000000e-02 -6.0450544e-03 
1.3803532e-03 1.0000000e-02 -7.3230534e-03 
6.5829700e-05 1.0000000e-02 -1.1736922e-03 
2.7142144e-03 1.0000000e-02 -8.2851896e-03 
5.0392030e-04 1.0000000e-02 6.5784910e-04 
4.1780764e-03 1.0000000e-02 -9.0342357e-03 
1.1628646e-03 1.0000000e-02 2.4220088e-03 
5.7070961e-03 1.0000000e-02 -9.6390187e-03 
2.0046218e-03 1.0000000e-02 4.1066196e-03 
7.2731595e-03 1.0000000e-02 -1.0140047e-02 
-6.4148600e-05 0.0000000e+00 -4.4525366e-03 
-1.0680180e-04 0.0000000e+00 -2.8088474e-03 
3.4513260e-04 0.0000000e+00 -6.0450544e-03 
1.3803532e-03 0.0000000e+00 -7.3230534e-03 
6.5829700e-05 0.0000000e+00 -1.1736922e-03 
2.9952540e-03 1.0000000e-02 5.7082181e-03 
8.8622628e-03 1.0000000e-02 -1.0562311e-02 
2.7142144e-03 0.0000000e+00 -8.2851896e-03 
5.0392030e-04 0.0000000e+00 6.5784910e-04 
4.1780764e-03 0.0000000e+00 -9.0342357e-03 
1.1628646e-03 0.0000000e+00 2.4220088e-03 
1.0466628e-02 1.0000000e-02 -1.0922252e-02 
4.1067238e-03 1.0000000e-02 7.2284501e-03 
5.7070961e-03 0.0000000e+00 -9.6390187e-03 
2.0046218e-03 0.0000000e+00 4.1066196e-03 
7.2731595e-03 0.0000000e+00 -1.0140047e-02 
1.2081579e-02 1.0000000e-02 -1.1231240e-02 
5.3166988e-03 1.0000000e-02 8.6715129e-03 
2.9952540e-03 0.0000000e+00 5.7082181e-03 
8.8622628e-03 0.0000000e+00 -1.0562311e-02 
1.3704120e-02 1.0000000e-02 -1.1497501e-02 
1.0466628e-02 0.0000000e+00 -1.0922252e-02 
4.1067238e-03 0.0000000e+00 7.2284501e-03 
6.6076374e-03 1.0000000e-02 1.0042624e-02 
1.5332244e-02 1.0000000e-02 -1.1727173e-02 
1.2081579e-02 0.0000000e+00 -1.1231240e-02 
5.3166988e-03 0.0000000e+00 8.6715129e-03 
7.9658343e-03 1.0000000e-02 1.1347144e-02 
1.3704120e-02 0.0000000e+00 -1.1497501e-02 
1.6964543e-02 1.0000000e-02 -1.1925002e-02 
6.6076374e-03 0.0000000e+00 1.0042624e-02 
9.3804686e-03 1.0000000e-02 1.2590236e-02 
1.5332244e-02 0.0000000e+00 -1.1727173e-02 
1.8600004e-02 1.0000000e-02 -1.2094716e-02 
7.9658343e-03 0.0000000e+00 1.1347144e-02 
1.6964543e-02 0.0000000e+00 -1.1925002e-02 
1.0843002e-02 1.0000000e-02 1.3776601e-02 
2.0237876e-02 1.0000000e-02 -1.2239318e-02 
9.3804686e-03 0.0000000e+00 1.2590236e-02 
1.8600004e-02 0.0000000e+00 -1.2094716e-02 
1.2346566e-02 1.0000000e-02 1.4910517e-02 
2.1877591e-02 1.0000000e-02 -1.2361246e-02 
1.0843002e-02 0.0000000e+00 1.3776601e-02 
2.0237876e-02 0.0000000e+00 -1.2239318e-02 
1.3885623e-02 1.0000000e-02 1.5995768e-02 
2.3518711e-02 1.0000000e-02 -1.2462540e-02 
1.2346566e-02 0.0000000e+00 1.4910517e-02 
2.1877591e-02 0.0000000e+00 -1.2361246e-02 
2.5160890e-02 1.0000000e-02 -1.2544903e-02 
1.5455654e-02 1.0000000e-02 1.7035707e-02 
1.3885623e-02 0.0000000e+00 1.5995768e-02 
2.3518711e-02 0.0000000e+00 -1.2462540e-02 
2.6803852e-02 1.0000000e-02 -1.2609772e-02 
1.7052912e-02 1.0000000e-02 1.8033321e-02 
2.5160890e-02 0.0000000e+00 -1.2544903e-02 
1.5455654e-02 0.0000000e+00 1.7035707e-02 
2.8447376e-02 1.0000000e-02 -1.2658389e-02 
2.6803852e-02 0.0000000e+00 -1.2609772e-02 
1.7052912e-02 0.0000000e+00 1.8033321e-02 
1.8674284e-02 1.0000000e-02 1.8991246e-02 
3.0091279e-02 1.0000000e-02 -1.2691814e-02 
2.8447376e-02 0.0000000e+00 -1.2658389e-02 
1.8674284e-02 0.0000000e+00 1.8991246e-02 
2.0317149e-02 1.0000000e-02 1.9911822e-02 
3.0091279e-02 0.0000000e+00 -1.2691814e-02 
3.1735410e-02 1.0000000e-02 -1.2710971e-02 
2.0317149e-02 0.0000000e+00 1.9911822e-02 
2.1979295e-02 1.0000000e-02 2.0797113e-02 
3.1735410e-02 0.0000000e+00 -1.2710971e-02 
3.3379643e-02 1.0000000e-02 -1.2716676e-02 
2.1979295e-02 0.0000000e+00 2.0797113e-02 
2.3658832e-02 1.0000000e-02 2.1648949e-02 
3.3379643e-02 0.0000000e+00 -1.2716676e-02 
3.5023871e-02 1.0000000e-02 -1.2709629e-02 
2.3658832e-02 0.0000000e+00 2.1648949e-02 
2.5354100e-02 1.0000000e-02 2.2469029e-02 
3.5023871e-02 0.0000000e+00 -1.2709629e-02 
3.6668001e-02 1.0000000e-02 -1.2690457e-02 
2.5354100e-02 0.0000000e+00 2.2469029e-02 
2.7063712e-02 1.0000000e-02 2.3258772e-02 
3.6668001e-02 0.0000000e+00 -1.2690457e-02 
3.8312016e-02 1.0000000e-02 -1.2663038e-02 
2.7063712e-02 0.0000000e+00 2.3258772e-02 
3.8312016e-02 0.0000000e+00 -1.2663038e-02 
2.8786417e-02 1.0000000e-02 2.4019532e-02 
3.9956032e-02 1.0000000e-02 -1.2635752e-02 
2.8786417e-02 0.0000000e+00 2.4019532e-02 
3.9956032e-02 0.0000000e+00 -1.2635752e-02 
3.0521135e-02 1.0000000e-02 2.4752486e-02 
4.1600048e-02 1.0000000e-02 -1.2608467e-02 
3.0521135e-02 0.0000000e+00 2.4752486e-02 
4.1600048e-02 0.0000000e+00 -1.2608467e-02 
3.2266919e-02 1.0000000e-02 2.5458676e-02 
4.3299814e-02 1.0000000e-02 -1.2580255e-02 
3.2266919e-02 0.0000000e+00 2.5458676e-02 
4.3299814e-02 0.0000000e+00 -1.2580255e-02 
3.4022902e-02 1.0000000e-02 2.6139111e-02 
4.5339533e-02 1.0000000e-02 -1.2546402e-02 
3.4022902e-02 0.0000000e+00 2.6139111e-02 
4.5339533e-02 0.0000000e+00 -1.2546402e-02 
3.5788340e-02 1.0000000e-02 2.6794623e-02 
4.7787196e-02 1.0000000e-02 -1.2505778e-02 
3.5788340e-02 0.0000000e+00 2.6794623e-02 
3.7562554e-02 1.0000000e-02 2.7425996e-02 
4.7787196e-02 0.0000000e+00 -1.2505778e-02 
3.7562554e-02 0.0000000e+00 2.7425996e-02 
3.9344928e-02 1.0000000e-02 2.8033950e-02 
5.0379113e-02 1.0000000e-02 -1.2462760e-02 
3.9344928e-02 0.0000000e+00 2.8033950e-02 
5.0379113e-02 0.0000000e+00 -1.2462760e-02 
4.1134916e-02 1.0000000e-02 2.8619109e-02 
5.2971029e-02 1.0000000e-02 -1.2419741e-02 
4.1134916e-02 0.0000000e+00 2.8619109e-02 
5.2971029e-02 0.0000000e+00 -1.2419741e-02 
4.2932026e-02 1.0000000e-02 2.9182016e-02 
4.2932026e-02 0.0000000e+00 2.9182016e-02 
5.5562946e-02 1.0000000e-02 -1.2376723e-02 
4.5339682e-02 1.0000000e-02 2.9899231e-02 
5.5562946e-02 0.0000000e+00 -1.2376723e-02 
4.5339682e-02 0.0000000e+00 2.9899231e-02 
5.8154863e-02 1.0000000e-02 -1.2333705e-02 
4.7758221e-02 1.0000000e-02 3.0578844e-02 
5.8154863e-02 0.0000000e+00 -1.2333705e-02 
4.7758221e-02 0.0000000e+00 3.0578844e-02 
6.0746779e-02 1.0000000e-02 -1.2290686e-02 
5.0186760e-02 1.0000000e-02 3.1221807e-02 
6.0746779e-02 0.0000000e+00 -1.2290686e-02 
5.0186760e-02 0.0000000e+00 3.1221807e-02 
6.3338696e-02 1.0000000e-02 -1.2247668e-02 
5.2624513e-02 1.0000000e-02 3.1828903e-02 
6.3338696e-02 0.0000000e+00 -1.2247668e-02 
5.2624513e-02 0.0000000e+00 3.1828903e-02 
5.5070762e-02 1.0000000e-02 3.2400804e-02 
6.5930613e-02 1.0000000e-02 -1.2204650e-02 
5.5070762e-02 0.0000000e+00 3.2400804e-02 
6.5930613e-02 0.0000000e+00 -1.2204650e-02 
5.7524847e-02 1.0000000e-02 3.2938082e-02 
6.8522529e-02 1.0000000e-02 -1.2161631e-02 
5.7524847e-02 0.0000000e+00 3.2938082e-02 
6.8522529e-02 0.0000000e+00 -1.2161631e-02 
5.9986169e-02 1.0000000e-02 3.3441170e-02 
7.1114446e-02 1.0000000e-02 -1.2118613e-02 
5.9986169e-02 0.0000000e+00 3.3441170e-02 
7.1114446e-02 0.0000000e+00 -1.2118613e-02 
6.2454163e-02 1.0000000e-02 3.3910436e-02 
6.2454163e-02 0.0000000e+00 3.3910436e-02 
7.3706362e-02 1.0000000e-02 -1.2075595e-02 
7.3706362e-02 0.0000000e+00 -1.2075595e-02 
6.4928303e-02 1.0000000e-02 3.4346139e-02 
6.4928303e-02 0.0000000e+00 3.4346139e-02 
7.6298279e-02 1.0000000e-02 -1.2032577e-02 
7.6298279e-02 0.0000000e+00 -1.2032577e-02 
6.7408092e-02 1.0000000e-02 3.4748446e-02 
6.7408092e-02 0.0000000e+00 3.4748446e-02 
7.8890196e-02 1.0000000e-02 -1.1989558e-02 
7.8890196e-02 0.0000000e+00 -1.1989558e-02 
6.9893057e-02 1.0000000e-02 3.5117436e-02 
6.9893057e-02 0.0000000e+00 3.5117436e-02 
8.1482112e-02 1.0000000e-02 -1.1946540e-02 
8.1482112e-02 0.0000000e+00 -1.1946540e-02 
7.2382742e-02 1.0000000e-02 3.5453098e-02 
7.2382742e-02 0.0000000e+00 3.5453098e-02 
8.4074029e-02 1.0000000e-02 -1.1903522e-02 
7.4876707e-02 1.0000000e-02 3.5755332e-02 
8.4074029e-02 0.0000000e+00 -1.1903522e-02 
7.4876707e-02 0.0000000e+00 3.5755332e-02 
8.6665946e-02 1.0000000e-02 -1.1860503e-02 
7.7374516e-02 1.0000000e-02 3.6023948e-02 
8.6665946e-02 0.0000000e+00 -1.1860503e-02 
7.7374516e-02 0.0000000e+00 3.6023948e-02 
8.9257862e-02 1.0000000e-02 -1.1817485e-02 
7.9875738e-02 1.0000000e-02 3.6258665e-02 
8.9257862e-02 0.0000000e+00 -1.1817485e-02 
7.9875738e-02 0.0000000e+00 3.6258665e-02 
8.2379940e-02 1.0000000e-02 3.6459105e-02 
9.1849779e-02 1.0000000e-02 -1.1774467e-02 
8.2379940e-02 0.0000000e+00 3.6459105e-02 
9.1849779e-02 0.0000000e+00 -1.1774467e-02 
8.4886681e-02 1.0000000e-02 3.6624786e-02 
9.4441696e-02 1.0000000e-02 -1.1731448e-02 
8.4886681e-02 0.0000000e+00 3.6624786e-02 
9.4441696e-02 0.0000000e+00 -1.1731448e-02 
8.7395510e-02 1.0000000e-02 3.6755108e-02 
8.7395510e-02 0.0000000e+00 3.6755108e-02 
9.7033612e-02 1.0000000e-02 -1.1688430e-02 
9.7033612e-02 0.0000000e+00 -1.1688430e-02 
8.9905951e-02 1.0000000e-02 3.6849401e-02 
8.9905951e-02 0.0000000e+00 3.6849401e-02 
9.9625529e-02 1.0000000e-02 -1.1645412e-02 
9.9625529e-02 0.0000000e+00 -1.1645412e-02 
9.2417505e-02 1.0000000e-02 3.6906832e-02 
9.2417505e-02 0.0000000e+00 3.6906832e-02 
1.0221745e-01 1.0000000e-02 -1.1602393e-02 
1.0221745e-01 0.0000000e+00 -1.1602393e-02 
9.4929640e-02 1.0000000e-02 3.6926425e-02 
9.4929640e-02 0.0000000e+00 3.6926425e-02 
1.0480936e-01 1.0000000e-02 -1.1559375e-02 
1.0480936e-01 0.0000000e+00 -1.1559375e-02 
9.7441776e-02 1.0000000e-02 3.6907077e-02 
9.7441776e-02 0.0000000e+00 3.6907077e-02 
1.0740128e-01 1.0000000e-02 -1.1516357e-02 
1.0740128e-01 0.0000000e+00 -1.1516357e-02 
9.9953281e-02 1.0000000e-02 3.6847529e-02 
9.9953281e-02 0.0000000e+00 3.6847529e-02 
1.0999320e-01 1.0000000e-02 -1.1473339e-02 
1.0246345e-01 1.0000000e-02 3.6746314e-02 
1.0999320e-01 0.0000000e+00 -1.1473339e-02 
1.0246345e-01 0.0000000e+00 3.6746314e-02 
1.0497150e-01 1.0000000e-02 3.6601738e-02 
1.1258511e-01 1.0000000e-02 -1.1430320e-02 
1.0497150e-01 0.0000000e+00 3.6601738e-02 
1.1258511e-01 0.0000000e+00 -1.1430320e-02 
1.0747666e-01 1.0000000e-02 3.6413638e-02 
1.1517703e-01 1.0000000e-02 -1.1387302e-02 
1.0747666e-01 0.0000000e+00 3.6413638e-02 
[...]
POINT_DATA 824
FIELD FieldData 2
DISPLACEMENT 3 824  float
0.0000000e+00 0.0000000e+00 0.0000000e+00 
0.0000000e+00 0.0000000e+00 0.0000000e+00 
0.0000000e+00 0.0000000e+00 0.0000000e+00 
0.0000000e+00 0.0000000e+00 0.0000000e+00 
0.0000000e+00 0.0000000e+00 0.0000000e+00 
0.0000000e+00 0.0000000e+00 0.0000000e+00 
0.0000000e+00 0.0000000e+00 0.0000000e+00 
0.0000000e+00 0.0000000e+00 0.0000000e+00 
0.0000000e+00 0.0000000e+00 0.0000000e+00 
0.0000000e+00 0.0000000e+00 0.0000000e+00 
0.0000000e+00 0.0000000e+00 0.0000000e+00 
0.0000000e+00 0.0000000e+00 0.0000000e+00 
0.0000000e+00 0.0000000e+00 0.0000000e+00 
0.0000000e+00 0.0000000e+00 0.0000000e+00 
0.0000000e+00 0.0000000e+00 0.0000000e+00 
0.0000000e+00 0.0000000e+00 0.0000000e+00 
0.0000000e+00 0.0000000e+00 0.0000000e+00 
0.0000000e+00 0.0000000e+00 0.0000000e+00 
0.0000000e+00 0.0000000e+00 0.0000000e+00 
0.0000000e+00 0.0000000e+00 0.0000000e+00 
0.0000000e+00 0.0000000e+00 0.0000000e+00 
0.0000000e+00 0.0000000e+00 0.0000000e+00 
0.0000000e+00 0.0000000e+00 0.0000000e+00 
0.0000000e+00 0.0000000e+00 0.0000000e+00 
0.0000000e+00 0.0000000e+00 0.0000000e+00 
0.0000000e+00 0.0000000e+00 0.0000000e+00 
0.0000000e+00 0.0000000e+00 0.0000000e+00 
0.0000000e+00 0.0000000e+00 0.0000000e+00 
0.0000000e+00 0.0000000e+00 0.0000000e+00 
0.0000000e+00 0.0000000e+00 0.0000000e+00 
0.0000000e+00 0.0000000e+00 0.0000000e+00 
0.0000000e+00 0.0000000e+00 0.0000000e+00 
0.0000000e+00 0.0000000e+00 0.0000000e+00 
0.0000000e+00 0.0000000e+00 0.0000000e+00 
0.0000000e+00 0.0000000e+00 0.0000000e+00 
0.0000000e+00 0.0000000e+00 0.0000000e+00 
0.0000000e+00 0.0000000e+00 0.0000000e+00 
0.0000000e+00 0.0000000e+00 0.0000000e+00 
0.0000000e+00 0.0000000e+00 0.0000000e+00 
0.0000000e+00 0.0000000e+00 0.0000000e+00 
0.0000000e+00 0.0000000e+00 0.0000000e+00 
0.0000000e+00 0.0000000e+00 0.0000000e+00 
0.0000000e+00 0.0000000e+00 0.0000000e+00 
0.0000000e+00 0.0000000e+00 0.0000000e+00 
0.0000000e+00 0.0000000e+00 0.0000000e+00 
0.0000000e+00 0.0000000e+00 0.0000000e+00 
0.0000000e+00 0.0000000e+00 0.0000000e+00 
0.0000000e+00 0.0000000e+00 0.0000000e+00 
0.0000000e+00 0.0000000e+00 0.0000000e+00 
0.0000000e+00 0.0000000e+00 0.0000000e+00 
0.0000000e+00 0.0000000e+00 0.0000000e+00 
0.0000000e+00 0.0000000e+00 0.0000000e+00 
0.0000000e+00 0.0000000e+00 0.0000000e+00 
0.0000000e+00 0.0000000e+00 0.0000000e+00 
0.0000000e+00 0.0000000e+00 0.0000000e+00 
0.0000000e+00 0.0000000e+00 0.0000000e+00 
0.0000000e+00 0.0000000e+00 0.0000000e+00 
0.0000000e+00 0.0000000e+00 0.0000000e+00 
0.0000000e+00 0.0000000e+00 0.0000000e+00 
0.0000000e+00 0.0000000e+00 0.0000000e+00 
0.0000000e+00 0.0000000e+00 0.0000000e+00 
0.0000000e+00 0.0000000e+00 0.0000000e+00 
0.0000000e+00 0.0000000e+00 0.0000000e+00 
0.0000000e+00 0.0000000e+00 0.0000000e+00 
0.0000000e+00 0.0000000e+00 0.0000000e+00 
0.0000000e+00 0.0000000e+00 0.0000000e+00 
0.0000000e+00 0.0000000e+00 0.0000000e+00 
0.0000000e+00 0.0000000e+00 0.0000000e+00 
0.0000000e+00 0.0000000e+00 0.0000000e+00 
0.0000000e+00 0.0000000e+00 0.0000000e+00 
0.0000000e+00 0.0000000e+00 0.0000000e+00 
0.0000000e+00 0.0000000e+00 0.0000000e+00 
0.0000000e+00 0.0000000e+00 0.0000000e+00 
0.0000000e+00 0.0000000e+00 0.0000000e+00 
0.0000000e+00 0.0000000e+00 0.0000000e+00 
0.0000000e+00 0.0000000e+00 0.0000000e+00 
0.0000000e+00 0.0000000e+00 0.0000000e+00 
0.0000000e+00 0.0000000e+00 0.0000000e+00 
0.0000000e+00 0.0000000e+00 0.0000000e+00 
0.0000000e+00 0.0000000e+00 0.0000000e+00 
0.0000000e+00 0.0000000e+00 0.0000000e+00 
0.0000000e+00 0.0000000e+00 0.0000000e+00 
0.0000000e+00 0.0000000e+00 0.0000000e+00 
0.0000000e+00 0.0000000e+00 0.0000000e+00 
0.0000000e+00 0.0000000e+00 0.0000000e+00 
0.0000000e+00 0.0000000e+00 0.0000000e+00 
0.0000000e+00 0.0000000e+00 0.0000000e+00 
0.0000000e+00 0.0000000e+00 0.0000000e+00 
0.0000000e+00 0.0000000e+00 0.0000000e+00 
0.0000000e+00 0.0000000e+00 0.0000000e+00 
0.0000000e+00 0.0000000e+00 0.0000000e+00 
0.0000000e+00 0.0000000e+00 0.0000000e+00 
0.0000000e+00 0.0000000e+00 0.0000000e+00 
0.0000000e+00 0.0000000e+00 0.0000000e+00 
0.0000000e+00 0.0000000e+00 0.0000000e+00 
0.0000000e+00 0.0000000e+00 0.0000000e+00 
0.0000000e+00 0.0000000e+00 0.0000000e+00 
-2.2856917e-05 0.0000000e+00 2.9529735e-04 
0.0000000e+00 0.0000000e+00 0.0000000e+00 
-2.2856917e-05 0.0000000e+00 2.9529735e-04 
0.0000000e+00 0.0000000e+00 0.0000000e+00 
-4.5008693e-05 0.0000000e+00 5.8673031e-04 
0.0000000e+00 0.0000000e+00 0.0000000e+00 
-4.5008693e-05 0.0000000e+00 5.8673031e-04 
0.0000000e+00 0.0000000e+00 0.0000000e+00 
-6.7190664e-05 0.0000000e+00 8.8404271e-04 
0.0000000e+00 0.0000000e+00 0.0000000e+00 
-6.7190664e-05 0.0000000e+00 8.8404271e-04 
0.0000000e+00 0.0000000e+00 0.0000000e+00 
-9.2953661e-05 0.0000000e+00 1.2360110e-03 
0.0000000e+00 0.0000000e+00 0.0000000e+00 
-9.2953661e-05 0.0000000e+00 1.2360110e-03 
0.0000000e+00 0.0000000e+00 0.0000000e+00 
-1.2285456e-04 0.0000000e+00 1.6525958e-03 
0.0000000e+00 0.0000000e+00 0.0000000e+00 
0.0000000e+00 0.0000000e+00 0.0000000e+00 
-1.2285456e-04 0.0000000e+00 1.6525958e-03 
0.0000000e+00 0.0000000e+00 0.0000000e+00 
8.1722334e-05 0.0000000e+00 -3.1906032e-04 
-1.5345571e-04 0.0000000e+00 2.0876076e-03 
8.1722334e-05 0.0000000e+00 -3.1906032e-04 
-1.5345571e-04 0.0000000e+00 2.0876076e-03 
1.5649998e-04 0.0000000e+00 -6.2002474e-04 
-1.8300743e-04 0.0000000e+00 2.5164860e-03 
1.5649998e-04 0.0000000e+00 -6.2002474e-04 
-1.8300743e-04 0.0000000e+00 2.5164860e-03 
2.2481389e-04 0.0000000e+00 -9.0344066e-04 
2.2481389e-04 0.0000000e+00 -9.0344066e-04 
-2.1152239e-04 0.0000000e+00 2.9392259e-03 
3.0651022e-04 0.0000000e+00 -1.2540933e-03 
-2.1152239e-04 0.0000000e+00 2.9392259e-03 
3.0651022e-04 0.0000000e+00 -1.2540933e-03 
-2.3901325e-04 0.0000000e+00 3.3558189e-03 
3.7817353e-04 0.0000000e+00 -1.5734306e-03 
-2.3901325e-04 0.0000000e+00 3.3558189e-03 
3.7817353e-04 0.0000000e+00 -1.5734306e-03 
-2.6549269e-04 0.0000000e+00 3.7662564e-03 
4.4067249e-04 0.0000000e+00 -1.8624105e-03 
-2.6549269e-04 0.0000000e+00 3.7662564e-03 
4.4067249e-04 0.0000000e+00 -1.8624105e-03 
-2.9097355e-04 0.0000000e+00 4.1705337e-03 
4.9477977e-04 0.0000000e+00 -2.1218221e-03 
-2.9097355e-04 0.0000000e+00 4.1705337e-03 
4.9477977e-04 0.0000000e+00 -2.1218221e-03 
5.4119874e-04 0.0000000e+00 -2.3523433e-03 
-3.1546862e-04 0.0000000e+00 4.5686425e-03 
5.4119874e-04 0.0000000e+00 -2.3523433e-03 
-3.1546862e-04 0.0000000e+00 4.5686425e-03 
5.8057446e-04 0.0000000e+00 -2.5545523e-03 
-3.3899075e-04 0.0000000e+00 4.9605747e-03 
5.8057446e-04 0.0000000e+00 -2.5545523e-03 
-3.3899075e-04 0.0000000e+00 4.9605747e-03 
6.1349302e-04 0.0000000e+00 -2.7288878e-03 
-3.6155291e-04 0.0000000e+00 5.3463256e-03 
6.1349302e-04 0.0000000e+00 -2.7288878e-03 
-3.6155291e-04 0.0000000e+00 5.3463256e-03 
6.4050486e-04 0.0000000e+00 -2.8757238e-03 
6.4050486e-04 0.0000000e+00 -2.8757238e-03 
-3.8316804e-04 0.0000000e+00 5.7258871e-03 
-3.8316804e-04 0.0000000e+00 5.7258871e-03 
6.6212151e-04 0.0000000e+00 -2.9953251e-03 
6.6212151e-04 0.0000000e+00 -2.9953251e-03 
-4.0384917e-04 0.0000000e+00 6.0992528e-03 
-4.0384917e-04 0.0000000e+00 6.0992528e-03 
6.7882511e-04 0.0000000e+00 -3.0878642e-03 
6.7882511e-04 0.0000000e+00 -3.0878642e-03 
-4.2360934e-04 0.0000000e+00 6.4664149e-03 
-4.2360934e-04 0.0000000e+00 6.4664149e-03 
6.9107455e-04 0.0000000e+00 -3.1534257e-03 
6.9107455e-04 0.0000000e+00 -3.1534257e-03 
-4.4246169e-04 0.0000000e+00 6.8273686e-03 
-4.4246169e-04 0.0000000e+00 6.8273686e-03 
6.9931044e-04 0.0000000e+00 -3.1920041e-03 
6.9931044e-04 0.0000000e+00 -3.1920041e-03 
-4.6041938e-04 0.0000000e+00 7.1821067e-03 
7.0396037e-04 0.0000000e+00 -3.2035045e-03 
-4.6041938e-04 0.0000000e+00 7.1821067e-03 
7.0396037e-04 0.0000000e+00 -3.2035045e-03 
-4.7749558e-04 0.0000000e+00 7.5306218e-03 
7.0544401e-04 0.0000000e+00 -3.1877423e-03 
-4.7749558e-04 0.0000000e+00 7.5306218e-03 
7.0544401e-04 0.0000000e+00 -3.1877423e-03 
-4.9370357e-04 0.0000000e+00 7.8729092e-03 
7.0417809e-04 0.0000000e+00 -3.1444417e-03 
-4.9370357e-04 0.0000000e+00 7.8729092e-03 
7.0417809e-04 0.0000000e+00 -3.1444417e-03 
7.0058118e-04 0.0000000e+00 -3.0732294e-03 
-5.0905663e-04 0.0000000e+00 8.2089622e-03 
7.0058118e-04 0.0000000e+00 -3.0732294e-03 
-5.0905663e-04 0.0000000e+00 8.2089622e-03 
6.9507891e-04 0.0000000e+00 -2.9736287e-03 
-5.2356809e-04 0.0000000e+00 8.5387733e-03 
6.9507891e-04 0.0000000e+00 -2.9736287e-03 
-5.2356809e-04 0.0000000e+00 8.5387733e-03 
6.8810943e-04 0.0000000e+00 -2.8450439e-03 
6.8810943e-04 0.0000000e+00 -2.8450439e-03 
-5.3725134e-04 0.0000000e+00 8.8623385e-03 
-5.3725134e-04 0.0000000e+00 8.8623385e-03 
6.8013246e-04 0.0000000e+00 -2.6868101e-03 
6.8013246e-04 0.0000000e+00 -2.6868101e-03 
-5.5011981e-04 0.0000000e+00 9.1796511e-03 
-5.5011981e-04 0.0000000e+00 9.1796511e-03 
6.7163187e-04 0.0000000e+00 -2.4980988e-03 
6.7163187e-04 0.0000000e+00 -2.4980988e-03 
-5.6218696e-04 0.0000000e+00 9.4907045e-03 
-5.6218696e-04 0.0000000e+00 9.4907045e-03 
6.6312638e-04 0.0000000e+00 -2.2779383e-03 
6.6312638e-04 0.0000000e+00 -2.2779383e-03 
-5.7346625e-04 0.0000000e+00 9.7954931e-03 
-5.7346625e-04 0.0000000e+00 9.7954931e-03 
6.5517938e-04 0.0000000e+00 -2.0252301e-03 
6.5517938e-04 0.0000000e+00 -2.0252301e-03 
-5.8397132e-04 0.0000000e+00 1.0094013e-02 
-5.8397132e-04 0.0000000e+00 1.0094013e-02 
6.4840923e-04 0.0000000e+00 -1.7387193e-03 
6.4840923e-04 0.0000000e+00 -1.7387193e-03 
-5.9371571e-04 0.0000000e+00 1.0386257e-02 
6.4350358e-04 0.0000000e+00 -1.4169432e-03 
-5.9371571e-04 0.0000000e+00 1.0386257e-02 
6.4350358e-04 0.0000000e+00 -1.4169432e-03 
6.4123735e-04 0.0000000e+00 -1.0582113e-03 
-6.0271299e-04 0.0000000e+00 1.0672218e-02 
6.4123735e-04 0.0000000e+00 -1.0582113e-03 
-6.0271299e-04 0.0000000e+00 1.0672218e-02 
6.4236006e-04 0.0000000e+00 -6.6236512e-04 
-6.1097693e-04 0.0000000e+00 1.0951894e-02 
6.4236006e-04 0.0000000e+00 -6.6236512e-04 
-6.1097693e-04 0.0000000e+00 1.0951894e-02 
6.4492327e-04 0.0000000e+00 -2.6062173e-04 
6.4492327e-04 0.0000000e+00 -2.6062173e-04 
-6.1852118e-04 0.0000000e+00 1.1225279e-02 
-6.1852118e-04 0.0000000e+00 1.1225279e-02 
6.4795713e-04 0.0000000e+00 1.3470650e-04 
6.4795713e-04 0.0000000e+00 1.3470650e-04 
-6.2535945e-04 0.0000000e+00 1.1492364e-02 
-6.2535945e-04 0.0000000e+00 1.1492364e-02 
6.5144651e-04 0.0000000e+00 5.2361246e-04 
6.5144651e-04 0.0000000e+00 5.2361246e-04 
-6.3150561e-04 0.0000000e+00 1.1753150e-02 
-6.3150561e-04 0.0000000e+00 1.1753150e-02 
6.5537640e-04 0.0000000e+00 9.0609621e-04 
6.5537640e-04 0.0000000e+00 9.0609621e-04 
-6.3697342e-04 0.0000000e+00 1.2007628e-02 
-6.3697342e-04 0.0000000e+00 1.2007628e-02 
6.5973161e-04 0.0000000e+00 1.2821510e-03 
6.5973161e-04 0.0000000e+00 1.2821510e-03 
-6.4177670e-04 0.0000000e+00 1.2255792e-02 
-6.4177670e-04 0.0000000e+00 1.2255792e-02 
6.6449708e-04 0.0000000e+00 1.6517769e-03 
6.6449708e-04 0.0000000e+00 1.6517769e-03 
-6.4592941e-04 0.0000000e+00 1.2497641e-02 
6.6965757e-04 0.0000000e+00 2.0149676e-03 
-6.4592941e-04 0.0000000e+00 1.2497641e-02 
6.6965757e-04 0.0000000e+00 2.0149676e-03 
6.7519801e-04 0.0000000e+00 2.3717228e-03 
-6.4944545e-04 0.0000000e+00 1.2733169e-02 
6.7519801e-04 0.0000000e+00 2.3717228e-03 
-6.4944545e-04 0.0000000e+00 1.2733169e-02 
6.8110301e-04 0.0000000e+00 2.7220382e-03 
-6.5233874e-04 0.0000000e+00 1.2962370e-02 
6.8110301e-04 0.0000000e+00 2.7220382e-03 
-6.5233874e-04 0.0000000e+00 1.2962370e-02 
6.8735748e-04 0.0000000e+00 3.0659107e-03 
6.8735748e-04 0.0000000e+00 3.0659107e-03 
-6.5462329e-04 0.0000000e+00 1.3185239e-02 
-6.5462329e-04 0.0000000e+00 1.3185239e-02 
6.9394618e-04 0.0000000e+00 3.4033401e-03 
6.9394618e-04 0.0000000e+00 3.4033401e-03 
-6.5631313e-04 0.0000000e+00 1.3401775e-02 
-6.5631313e-04 0.0000000e+00 1.3401775e-02 
7.0085376e-04 0.0000000e+00 3.7343205e-03 
7.0085376e-04 0.0000000e+00 3.7343205e-03 
-6.5742231e-04 0.0000000e+00 1.3611971e-02 
-6.5742231e-04 0.0000000e+00 1.3611971e-02 
7.0806502e-04 0.0000000e+00 4.0588528e-03 
7.0806502e-04 0.0000000e+00 4.0588528e-03 
-6.5796490e-04 0.0000000e+00 1.3815822e-02 
-6.5796490e-04 0.0000000e+00 1.3815822e-02 
7.1556457e-04 0.0000000e+00 4.3769316e-03 
7.1556457e-04 0.0000000e+00 4.3769316e-03 
-6.5795503e-04 0.0000000e+00 1.4013327e-02 
-6.5795503e-04 0.0000000e+00 1.4013327e-02 
7.2333719e-04 0.0000000e+00 4.6885572e-03 
7.2333719e-04 0.0000000e+00 4.6885572e-03 
-6.5740685e-04 0.0000000e+00 1.4204479e-02 
-6.5740685e-04 0.0000000e+00 1.4204479e-02 
7.3136738e-04 0.0000000e+00 4.9937260e-03 
7.3136738e-04 0.0000000e+00 4.9937260e-03 
-6.5633449e-04 0.0000000e+00 1.4389276e-02 
-6.5633449e-04 0.0000000e+00 1.4389276e-02 
7.3963990e-04 0.0000000e+00 5.2924363e-03 
7.3963990e-04 0.0000000e+00 5.2924363e-03 
-6.5475220e-04 0.0000000e+00 1.4567714e-02 
7.4813942e-04 0.0000000e+00 5.5846880e-03 
-6.5475220e-04 0.0000000e+00 1.4567714e-02 
7.4813942e-04 0.0000000e+00 5.5846880e-03 
-6.5267419e-04 0.0000000e+00 1.4739788e-02 
7.5685045e-04 0.0000000e+00 5.8704768e-03 
-6.5267419e-04 0.0000000e+00 1.4739788e-02 
7.5685045e-04 0.0000000e+00 5.8704768e-03 
7.6575770e-04 0.0000000e+00 6.1498036e-03 
-6.5011471e-04 0.0000000e+00 1.4905497e-02 
7.6575770e-04 0.0000000e+00 6.1498036e-03 
-6.5011471e-04 0.0000000e+00 1.4905497e-02 
7.7484565e-04 0.0000000e+00 6.4226645e-03 
7.7484565e-04 0.0000000e+00 6.4226645e-03 
-6.4708803e-04 0.0000000e+00 1.5064834e-02 
-6.4708803e-04 0.0000000e+00 1.5064834e-02 
7.8409904e-04 0.0000000e+00 6.6890604e-03 
7.8409904e-04 0.0000000e+00 6.6890604e-03 
-6.4360848e-04 0.0000000e+00 1.5217797e-02 
-6.4360848e-04 0.0000000e+00 1.5217797e-02 
7.9350223e-04 0.0000000e+00 6.9489883e-03 
7.9350223e-04 0.0000000e+00 6.9489883e-03 
-6.3969037e-04 0.0000000e+00 1.5364385e-02 
-6.3969037e-04 0.0000000e+00 1.5364385e-02 
8.0304001e-04 0.0000000e+00 7.2024487e-03 
8.0304001e-04 0.0000000e+00 7.2024487e-03 
-6.3534804e-04 0.0000000e+00 1.5504591e-02 
-6.3534804e-04 0.0000000e+00 1.5504591e-02 
8.1269673e-04 0.0000000e+00 7.4494390e-03 
8.1269673e-04 0.0000000e+00 7.4494390e-03 
-6.3059592e-04 0.0000000e+00 1.5638414e-02 
-6.3059592e-04 0.0000000e+00 1.5638414e-02 
8.2245706e-04 0.0000000e+00 7.6899590e-03 
8.2245706e-04 0.0000000e+00 7.6899590e-03 
-6.2544836e-04 0.0000000e+00 1.5765852e-02 
-6.2544836e-04 0.0000000e+00 1.5765852e-02 
8.3230558e-04 0.0000000e+00 7.9240092e-03 
8.3230558e-04 0.0000000e+00 7.9240092e-03 
-6.1991977e-04 0.0000000e+00 1.5886901e-02 
-6.1991977e-04 0.0000000e+00 1.5886901e-02 
8.4222672e-04 0.0000000e+00 8.1515868e-03 
8.4222672e-04 0.0000000e+00 8.1515868e-03 
-6.1402465e-04 0.0000000e+00 1.6001557e-02 
-6.1402465e-04 0.0000000e+00 1.6001557e-02 
8.5220513e-04 0.0000000e+00 8.3726934e-03 
8.5220513e-04 0.0000000e+00 8.3726934e-03 
-6.0777740e-04 0.0000000e+00 1.6109820e-02 
-6.0777740e-04 0.0000000e+00 1.6109820e-02 
8.6222518e-04 0.0000000e+00 8.5873266e-03 
8.6222518e-04 0.0000000e+00 8.5873266e-03 
-6.0119250e-04 0.0000000e+00 1.6211685e-02 
-6.0119250e-04 0.0000000e+00 1.6211685e-02 
8.7227160e-04 0.0000000e+00 8.7954882e-03 
8.7227160e-04 0.0000000e+00 8.7954882e-03 
-5.9428452e-04 0.0000000e+00 1.6307151e-02 
-5.9428452e-04 0.0000000e+00 1.6307151e-02 
8.8232870e-04 0.0000000e+00 8.9971759e-03 
8.8232870e-04 0.0000000e+00 8.9971759e-03 
-5.8706788e-04 0.0000000e+00 1.6396216e-02 
8.9238122e-04 0.0000000e+00 9.1923919e-03 
-5.8706788e-04 0.0000000e+00 1.6396216e-02 
8.9238122e-04 0.0000000e+00 9.1923919e-03 
9.0241348e-04 0.0000000e+00 9.3811340e-03 
-5.7955717e-04 0.0000000e+00 1.6478877e-02 
9.0241348e-04 0.0000000e+00 9.3811340e-03 
-5.7955717e-04 0.0000000e+00 1.6478877e-02 
9.1241013e-04 0.0000000e+00 9.5634038e-03 
-5.7176692e-04 0.0000000e+00 1.6555130e-02 
9.1241013e-04 0.0000000e+00 9.5634038e-03 
-5.7176692e-04 0.0000000e+00 1.6555130e-02 
9.2235576e-04 0.0000000e+00 9.7392023e-03 
9.2235576e-04 0.0000000e+00 9.7392023e-03 
-5.6371168e-04 0.0000000e+00 1.6624977e-02 
-5.6371168e-04 0.0000000e+00 1.6624977e-02 
9.3223471e-04 0.0000000e+00 9.9085280e-03 
9.3223471e-04 0.0000000e+00 9.9085280e-03 
-5.5540606e-04 0.0000000e+00 1.6688413e-02 
-5.5540606e-04 0.0000000e+00 1.6688413e-02 
9.4203174e-04 0.0000000e+00 1.0071384e-02 
9.4203174e-04 0.0000000e+00 1.0071384e-02 
-5.4686460e-04 0.0000000e+00 1.6745438e-02 
-5.4686460e-04 0.0000000e+00 1.6745438e-02 
9.5173117e-04 0.0000000e+00 1.0227768e-02 
9.5173117e-04 0.0000000e+00 1.0227768e-02 
-5.3810194e-04 0.0000000e+00 1.6796049e-02 
-5.3810194e-04 0.0000000e+00 1.6796049e-02 
9.6131776e-04 0.0000000e+00 1.0377683e-02 
9.6131776e-04 0.0000000e+00 1.0377683e-02 
-5.2913271e-04 0.0000000e+00 1.6840244e-02 
-5.2913271e-04 0.0000000e+00 1.6840244e-02 
9.7077585e-04 0.0000000e+00 1.0521129e-02 
9.7077585e-04 0.0000000e+00 1.0521129e-02 
-5.1997148e-04 0.0000000e+00 1.6878024e-02 
-5.1997148e-04 0.0000000e+00 1.6878024e-02 
9.8009014e-04 0.0000000e+00 1.0658107e-02 
9.8009014e-04 0.0000000e+00 1.0658107e-02 
-5.1063292e-04 0.0000000e+00 1.6909386e-02 
-5.1063292e-04 0.0000000e+00 1.6909386e-02 
9.8924522e-04 0.0000000e+00 1.0788620e-02 
9.8924522e-04 0.0000000e+00 1.0788620e-02 
-5.0113171e-04 0.0000000e+00 1.6934328e-02 
-5.0113171e-04 0.0000000e+00 1.6934328e-02 
9.9822557e-04 0.0000000e+00 1.0912666e-02 
9.9822557e-04 0.0000000e+00 1.0912666e-02 
-4.9148244e-04 0.0000000e+00 1.6952850e-02 
-4.9148244e-04 0.0000000e+00 1.6952850e-02 
1.0070159e-03 0.0000000e+00 1.1030250e-02 
1.0070159e-03 0.0000000e+00 1.1030250e-02 
-4.8169980e-04 0.0000000e+00 1.6964951e-02 
-4.8169980e-04 0.0000000e+00 1.6964951e-02 
1.0156006e-03 0.0000000e+00 1.1141370e-02 
1.0156006e-03 0.0000000e+00 1.1141370e-02 
-4.7179849e-04 0.0000000e+00 1.6970630e-02 
-4.7179849e-04 0.0000000e+00 1.6970630e-02 
1.0239646e-03 0.0000000e+00 1.1246031e-02 
1.0239646e-03 0.0000000e+00 1.1246031e-02 
-4.6179313e-04 0.0000000e+00 1.6969885e-02 
-4.6179313e-04 0.0000000e+00 1.6969885e-02 
1.0320922e-03 0.0000000e+00 1.1344232e-02 
1.0320922e-03 0.0000000e+00 1.1344232e-02 
-4.5169844e-04 0.0000000e+00 1.6962717e-02 
-4.5169844e-04 0.0000000e+00 1.6962717e-02 
1.0399300e-03 0.0000000e+00 1.1435530e-02 
1.0399300e-03 0.0000000e+00 1.1435530e-02 
-4.4149880e-04 0.0000000e+00 1.6949083e-02 
-4.4149880e-04 0.0000000e+00 1.6949083e-02 
1.0490165e-03 0.0000000e+00 1.1537380e-02 
1.0490165e-03 0.0000000e+00 1.1537380e-02 
-4.2918707e-04 0.0000000e+00 1.6924991e-02 
-4.2918707e-04 0.0000000e+00 1.6924991e-02 
1.0595159e-03 0.0000000e+00 1.1650354e-02 
1.0595159e-03 0.0000000e+00 1.1650354e-02 
-4.1434759e-04 0.0000000e+00 1.6886799e-02 
-4.1434759e-04 0.0000000e+00 1.6886799e-02 
1.0716033e-03 0.0000000e+00 1.1774828e-02 
1.0716033e-03 0.0000000e+00 1.1774828e-02 
-3.9666876e-04 0.0000000e+00 1.6830412e-02 
-3.9666876e-04 0.0000000e+00 1.6830412e-02 
1.0837733e-03 0.0000000e+00 1.1894307e-02 
1.0837733e-03 0.0000000e+00 1.1894307e-02 
-3.7896271e-04 0.0000000e+00 1.6763001e-02 
-3.7896271e-04 0.0000000e+00 1.6763001e-02 
1.0953487e-03 0.0000000e+00 1.2002107e-02 
1.0953487e-03 0.0000000e+00 1.2002107e-02 
-3.6125466e-04 0.0000000e+00 1.6684566e-02 
-3.6125466e-04 0.0000000e+00 1.6684566e-02 
1.1063017e-03 0.0000000e+00 1.2098231e-02 
1.1063017e-03 0.0000000e+00 1.2098231e-02 
-3.4356982e-04 0.0000000e+00 1.6595108e-02 
-3.4356982e-04 0.0000000e+00 1.6595108e-02 
1.1166049e-03 0.0000000e+00 1.2182685e-02 
1.1166049e-03 0.0000000e+00 1.2182685e-02 
-3.2593337e-04 0.0000000e+00 1.6494626e-02 
-3.2593337e-04 0.0000000e+00 1.6494626e-02 
1.1262305e-03 0.0000000e+00 1.2255473e-02 
1.1262305e-03 0.0000000e+00 1.2255473e-02 
-3.0837061e-04 0.0000000e+00 1.6383121e-02 
-3.0837061e-04 0.0000000e+00 1.6383121e-02 
1.1351512e-03 0.0000000e+00 1.2316603e-02 
1.1351512e-03 0.0000000e+00 1.2316603e-02 
-2.9090670e-04 0.0000000e+00 1.6260594e-02 
-2.9090670e-04 0.0000000e+00 1.6260594e-02 
1.1433394e-03 0.0000000e+00 1.2366077e-02 
1.1433394e-03 0.0000000e+00 1.2366077e-02 
-2.7356685e-04 0.0000000e+00 1.6127045e-02 
-2.7356685e-04 0.0000000e+00 1.6127045e-02 