# vtk DataFile Version 4.0
vtk output
ASCII
DATASET UNSTRUCTURED_GRID
POINTS 824 float
-6.4148600e-05 1.0000000e-02 -4.4525366e-03 
-1.0680180e-04 1.0000000e-02 -2.8088474e-03 
3.4513260e-04 1.0000000e-02 -6.0450544e-03 
1.3803532e-03 1.0000000e-02 -7.3230534e-03 
6.5829700e-05 1.0000000e-02 -1.1736922e-03 
2.7142144e-03 1.0000000e-02 -8.2851896e-03 
5.0392030e-04 1.0000000e-02 6.5784910e-04 
4.1780764e-03 1.0000000e-02 -9.0342357e-03 
1.1628646e-03 1.0000000e-02 2.4220088e-03 
5.7070961e-03 1.0000000e-02 -9.6390187e-03 
2.0046218e-03 1.0000000e-02 4.1066196e-03 
7.2731595e-03 1.0000000e-02 -1.0140047e-02 
-6.4148600e-05 0.0000000e+00 -4.4525366e-03 
-1.0680180e-04 0.0000000e+00 -2.8088474e-03 
3.4513260e-04 0.0000000e+00 -6.0450544e-03 
1.3803532e-03 0.0000000e+00 -7.3230534e-03 
6.5829700e-05 0.0000000e+00 -1.1736922e-03 
2.9952540e-03 1.0000000e-02 5.7082181e-03 
8.8622628e-03 1.0000000e-02 -1.0562311e-02 
2.7142144e-03 0.0000000e+00 -8.2851896e-03 
5.0392030e-04 0.0000000e+00 6.5784910e-04 
4.1780764e-03 0.0000000e+00 -9.0342357e-03 
1.1628646e-03 0.0000000e+00 2.4220088e-03 
1.0466628e-02 1.0000000e-02 -1.0922252e-02 
4.1067238e-03 1.0000000e-02 7.2284501e-03 
5.7070961e-03 0.0000000e+00 -9.6390187e-03 
2.0046218e-03 0.0000000e+00 4.1066196e-03 
7.2731595e-03 0.0000000e+00 -1.0140047e-02 
1.2081579e-02 1.0000000e-02 -1.1231240e-02 
5.3166988e-03 1.0000000e-02 8.6715129e-03 
2.9952540e-03 0.0000000e+00 5.7082181e-03 
8.8622628e-03 0.0000000e+00 -1.0562311e-02 
1.3704120e-02 1.0000000e-02 -1.1497501e-02 
1.0466628e-02 0.0000000e+00 -1.0922252e-02 
4.1067238e-03 0.0000000e+00 7.2284501e-03 
6.6076374e-03 1.0000000e-02 1.0042624e-02 
1.5332244e-02 1.0000000e-02 -1.1727173e-02 
1.2081579e-02 0.0000000e+00 -1.1231240e-02 
5.3166988e-03 0.0000000e+00 8.6715129e-03 
7.9658343e-03 1.0000000e-02 1.1347144e-02 
1.3704120e-02 0.0000000e+00 -1.1497501e-02 
1.6964543e-02 1.0000000e-02 -1.1925002e-02 
6.6076374e-03 0.0000000e+00 1.0042624e-02 
9.3804686e-03 1.0000000e-02 1.2590236e-02 
1.5332244e-02 0.0000000e+00 -1.1727173e-02 
1.8600004e-02 1.0000000e-02 -1.2094716e-02 
7.9658343e-03 0.0000000e+00 1.1347144e-02 
1.6964543e-02 0.0000000e+00 -1.1925002e-02 
1.0843002e-02 1.0000000e-02 1.3776601e-02 
2.0237876e-02 1.0000000e-02 -1.2239318e-02 
9.3804686e-03 0.0000000e+00 1.2590236e-02 
1.8600004e-02 0.0000000e+00 -1.2094716e-02 
1.2346566e-02 1.0000000e-02 1.4910517e-02 
2.1877591e-02 1.0000000e-02 -1.2361246e-02 
1.0843002e-02 0.0000000e+00 1.3776601e-02 
2.0237876e-02 0.0000000e+00 -1.2239318e-02 
1.3885623e-02 1.0000000e-02 1.5995768e-02 
2.3518711e-02 1.0000000e-02 -1.2462540e-02 
1.2346566e-02 0.0000000e+00 1.4910517e-02 
2.1877591e-02 0.0000000e+00 -1.2361246e-02 
2.5160890e-02 1.0000000e-02 -1.2544903e-02 
1.5455654e-02 1.0000000e-02 1.7035707e-02 
1.3885623e-02 0.0000000e+00 1.5995768e-02 
2.3518711e-02 0.0000000e+00 -1.2462540e-02 
2.6803852e-02 1.0000000e-02 -1.2609772e-02 
1.7052912e-02 1.0000000e-02 1.8033321e-02 
2.5160890e-02 0.0000000e+00 -1.2544903e-02 
1.5455654e-02 0.0000000e+00 1.7035707e-02 
2.8447376e-02 1.0000000e-02 -1.2658389e-02 
2.6803852e-02 0.0000000e+00 -1.2609772e-02 
1.7052912e-02 0.0000000e+00 1.8033321e-02 
1.8674284e-02 1.0000000e-02 1.8991246e-02 
3.0091279e-02 1.0000000e-02 -1.2691814e-02 
2.8447376e-02 0.0000000e+00 -1.2658389e-02 
1.8674284e-02 0.0000000e+00 1.8991246e-02 
2.0317149e-02 1.0000000e-02 1.9911822e-02 
3.0091279e-02 0.0000000e+00 -1.2691814e-02 
3.1735410e-02 1.0000000e-02 -1.2710971e-02 
2.0317149e-02 0.0000000e+00 1.9911822e-02 
2.1979295e-02 1.0000000e-02 2.0797113e-02 
3.1735410e-02 0.0000000e+00 -1.2710971e-02 
3.3379643e-02 1.0000000e-02 -1.2716676e-02 
2.1979295e-02 0.0000000e+00 2.0797113e-02 
2.3658832e-02 1.0000000e-02 2.1648949e-02 
3.3379643e-02 0.0000000e+00 -1.2716676e-02 
3.5023871e-02 1.0000000e-02 -1.2709629e-02 
2.3658832e-02 0.0000000e+00 2.1648949e-02 
2.5354100e-02 1.0000000e-02 2.2469029e-02 
3.5023871e-02 0.0000000e+00 -1.2709629e-02 
3.6668001e-02 1.0000000e-02 -1.2690457e-02 
2.5354100e-02 0.0000000e+00 2.2469029e-02 
2.7063712e-02 1.0000000e-02 2.3258772e-02 
3.6668001e-02 0.0000000e+00 -1.2690457e-02 
3.8312016e-02 1.0000000e-02 -1.2663038e-02 
2.7063712e-02 0.0000000e+00 2.3258772e-02 
3.8312016e-02 0.0000000e+00 -1.2663038e-02 
2.8786417e-02 1.0000000e-02 2.4019532e-02 
3.9956032e-02 1.0000000e-02 -1.2635752e-02 
2.8786417e-02 0.0000000e+00 2.4019532e-02 
3.9956032e-02 0.0000000e+00 -1.2635752e-02 
3.0521135e-02 1.0000000e-02 2.4752486e-02 
4.1600048e-02 1.0000000e-02 -1.2608467e-02 
3.0521135e-02 0.0000000e+00 2.4752486e-02 
4.1600048e-02 0.0000000e+00 -1.2608467e-02 
3.2266919e-02 1.0000000e-02 2.5458676e-02 
4.3299814e-02 1.0000000e-02 -1.2580255e-02 
3.2266919e-02 0.0000000e+00 2.5458676e-02 
4.3299814e-02 0.0000000e+00 -1.2580255e-02 
3.4022902e-02 1.0000000e-02 2.6139111e-02 
4.5339533e-02 1.0000000e-02 -1.2546402e-02 
3.4022902e-02 0.0000000e+00 2.6139111e-02 
4.5339533e-02 0.0000000e+00 -1.2546402e-02 
3.5788340e-02 1.0000000e-02 2.6794623e-02 
4.7787196e-02 1.0000000e-02 -1.2505778e-02 
3.5788340e-02 0.0000000e+00 2.6794623e-02 
3.7562554e-02 1.0000000e-02 2.7425996e-02 
4.7787196e-02 0.0000000e+00 -1.2505778e-02 
3.7562554e-02 0.0000000e+00 2.7425996e-02 
3.9344928e-02 1.0000000e-02 2.8033950e-02 
5.0379113e-02 1.0000000e-02 -1.2462760e-02 
3.9344928e-02 0.0000000e+00 2.8033950e-02 
5.0379113e-02 0.0000000e+00 -1.2462760e-02 
4.1134916e-02 1.0000000e-02 2.8619109e-02 
5.2971029e-02 1.0000000e-02 -1.2419741e-02 
4.1134916e-02 0.0000000e+00 2.8619109e-02 
5.2971029e-02 0.0000000e+00 -1.2419741e-02 
4.2932026e-02 1.0000000e-02 2.9182016e-02 
4.2932026e-02 0.0000000e+00 2.9182016e-02 
5.5562946e-02 1.0000000e-02 -1.2376723e-02 
4.5339682e-02 1.0000000e-02 2.9899231e-02 
5.5562946e-02 0.0000000e+00 -1.2376723e-02 
4.5339682e-02 0.0000000e+00 2.9899231e-02 
5.8154863e-02 1.0000000e-02 -1.2333705e-02 
4.7758221e-02 1.0000000e-02 3.0578844e-02 
5.8154863e-02 0.0000000e+00 -1.2333705e-02 
4.7758221e-02 0.0000000e+00 3.0578844e-02 
6.0746779e-02 1.0000000e-02 -1.2290686e-02 
5.0186760e-02 1.0000000e-02 3.1221807e-02 
6.0746779e-02 0.0000000e+00 -1.2290686e-02 
5.0186760e-02 0.0000000e+00 3.1221807e-02 
6.3338696e-02 1.0000000e-02 -1.2247668e-02 
5.2624513e-02 1.0000000e-02 3.1828903e-02 
6.3338696e-02 0.0000000e+00 -1.2247668e-02 
5.2624513e-02 0.0000000e+00 3.1828903e-02 
5.5070762e-02 1.0000000e-02 3.2400804e-02 
6.5930613e-02 1.0000000e-02 -1.2204650e-02 
5.5070762e-02 0.0000000e+00 3.2400804e-02 
6.5930613e-02 0.0000000e+00 -1.2204650e-02 
5.7524847e-02 1.0000000e-02 3.2938082e-02 
6.8522529e-02 1.0000000e-02 -1.2161631e-02 
5.7524847e-02 0.0000000e+00 3.2938082e-02 
6.8522529e-02 0.0000000e+00 -1.2161631e-02 
5.9986169e-02 1.0000000e-02 3.3441170e-02 
7.1114446e-02 1.0000000e-02 -1.2118613e-02 
5.9986169e-02 0.0000000e+00 3.3441170e-02 
7.1114446e-02 0.0000000e+00 -1.2118613e-02 
6.2454163e-02 1.0000000e-02 3.3910436e-02 
6.2454163e-02 0.0000000e+00 3.3910436e-02 
7.3706362e-02 1.0000000e-02 -1.2075595e-02 
7.3706362e-02 0.0000000e+00 -1.2075595e-02 
6.4928303e-02 1.0000000e-02 3.4346139e-02 
6.4928303e-02 0.0000000e+00 3.4346139e-02 
7.6298279e-02 1.0000000e-02 -1.2032577e-02 
7.6298279e-02 0.0000000e+00 -1.2032577e-02 
6.7408092e-02 1.0000000e-02 3.4748446e-02 
6.7408092e-02 0.0000000e+00 3.4748446e-02 
7.8890196e-02 1.0000000e-02 -1.1989558e-02 
7.8890196e-02 0.0000000e+00 -1.1989558e-02 
6.9893057e-02 1.0000000e-02 3.5117436e-02 
6.9893057e-02 0.0000000e+00 3.5117436e-02 
8.1482112e-02 1.0000000e-02 -1.1946540e-02 
8.1482112e-02 0.0000000e+00 -1.1946540e-02 
7.2382742e-02 1.0000000e-02 3.5453098e-02 
7.2382742e-02 0.0000000e+00 3.5453098e-02 
8.4074029e-02 1.0000000e-02 -1.1903522e-02 
7.4876707e-02 1.0000000e-02 3.5755332e-02 
8.4074029e-02 0.0000000e+00 -1.1903522e-02 
7.4876707e-02 0.0000000e+00 3.5755332e-02 
8.6665946e-02 1.0000000e-02 -1.1860503e-02 
7.7374516e-02 1.0000000e-02 3.6023948e-02 
8.6665946e-02 0.0000000e+00 -1.1860503e-02 
7.7374516e-02 0.0000000e+00 3.6023948e-02 
8.9257862e-02 1.0000000e-02 -1.1817485e-02 
7.9875738e-02 1.0000000e-02 3.6258665e-02 
8.9257862e-02 0.0000000e+00 -1.1817485e-02 
7.9875738e-02 0.0000000e+00 3.6258665e-02 
8.2379940e-02 1.0000000e-02 3.6459105e-02 
9.1849779e-02 1.0000000e-02 -1.1774467e-02 
8.2379940e-02 0.0000000e+00 3.6459105e-02 
9.1849779e-02 0.0000000e+00 -1.1774467e-02 
8.4886681e-02 1.0000000e-02 3.6624786e-02 
9.4441696e-02 1.0000000e-02 -1.1731448e-02 
8.4886681e-02 0.0000000e+00 3.6624786e-02 
9.4441696e-02 0.0000000e+00 -1.1731448e-02 
8.7395510e-02 1.0000000e-02 3.6755108e-02 
8.7395510e-02 0.0000000e+00 3.6755108e-02 
9.7033612e-02 1.0000000e-02 -1.1688430e-02 
9.7033612e-02 0.0000000e+00 -1.1688430e-02 
8.9905951e-02 1.0000000e-02 3.6849401e-02 
8.9905951e-02 0.0000000e+00 3.6849401e-02 
9.9625529e-02 1.0000000e-02 -1.1645412e-02 
9.9625529e-02 0.0000000e+00 -1.1645412e-02 
9.2417505e-02 1.0000000e-02 3.6906832e-02 
9.2417505e-02 0.0000000e+00 3.6906832e-02 
1.0221745e-01 1.0000000e-02 -1.1602393e-02 
1.0221745e-01 0.0000000e+00 -1.1602393e-02 
9.4929640e-02 1.0000000e-02 3.6926425e-02 
9.4929640e-02 0.0000000e+00 3.6926425e-02 
1.0480936e-01 1.0000000e-02 -1.1559375e-02 
1.0480936e-01 0.0000000e+00 -1.1559375e-02 
9.7441776e-02 1.0000000e-02 3.6907077e-02 
9.7441776e-02 0.0000000e+00 3.6907077e-02 
1.0740128e-01 1.0000000e-02 -1.1516357e-02 
1.0740128e-01 0.0000000e+00 -1.1516357e-02 
9.9953281e-02 1.0000000e-02 3.6847529e-02 
9.9953281e-02 0.0000000e+00 3.6847529e-02 
1.0999320e-01 1.0000000e-02 -1.1473339e-02 
1.0246345e-01 1.0000000e-02 3.6746314e-02 
1.0999320e-01 0.0000000e+00 -1.1473339e-02 
1.0246345e-01 0.0000000e+00 3.6746314e-02 
1.0497150e-01 1.0000000e-02 3.6601738e-02 
1.1258511e-01 1.0000000e-02 -1.1430320e-02 
1.0497150e-01 0.0000000e+00 3.6601738e-02 
1.1258511e-01 0.0000000e+00 -1.1430320e-02 
1.0747666e-01 1.0000000e-02 3.6413638e-02 
1.1517703e-01 1.0000000e-02 -1.1387302e-02 
1.0747666e-01 0.0000000e+00 3.6413638e-02 
[...]
POINT_DATA 824
FIELD FieldData 2
DISPLACEMENT 3 824  float
0.0000000e+00 0.0000000e+00 0.0000000e+00 
0.0000000e+00 0.0000000e+00 0.0000000e+00 
0.0000000e+00 0.0000000e+00 0.0000000e+00 
0.0000000e+00 0.0000000e+00 0.0000000e+00 
0.0000000e+00 0.0000000e+00 0.0000000e+00 
0.0000000e+00 0.0000000e+00 0.0000000e+00 
0.0000000e+00 0.0000000e+00 0.0000000e+00 
0.0000000e+00 0.0000000e+00 0.0000000e+00 
0.0000000e+00 0.0000000e+00 0.0000000e+00 
0.0000000e+00 0.0000000e+00 0.0000000e+00 
0.0000000e+00 0.0000000e+00 0.0000000e+00 
0.0000000e+00 0.0000000e+00 0.0000000e+00 
0.0000000e+00 0.0000000e+00 0.0000000e+00 
0.0000000e+00 0.0000000e+00 0.0000000e+00 
0.0000000e+00 0.0000000e+00 0.0000000e+00 
0.0000000e+00 0.0000000e+00 0.0000000e+00 
0.0000000e+00 0.0000000e+00 0.0000000e+00 
0.0000000e+00 0.0000000e+00 0.0000000e+00 
0.0000000e+00 0.0000000e+00 0.0000000e+00 
0.0000000e+00 0.0000000e+00 0.0000000e+00 
0.0000000e+00 0.0000000e+00 0.0000000e+00 
0.0000000e+00 0.0000000e+00 0.0000000e+00 
0.0000000e+00 0.0000000e+00 0.0000000e+00 
0.0000000e+00 0.0000000e+00 0.0000000e+00 
0.0000000e+00 0.0000000e+00 0.0000000e+00 
0.0000000e+00 0.0000000e+00 0.0000000e+00 
0.0000000e+00 0.0000000e+00 0.0000000e+00 
0.0000000e+00 0.0000000e+00 0.0000000e+00 
0.0000000e+00 0.0000000e+00 0.0000000e+00 
0.0000000e+00 0.0000000e+00 0.0000000e+00 
0.0000000e+00 0.0000000e+00 0.0000000e+00 
0.0000000e+00 0.0000000e+00 0.0000000e+00 
0.0000000e+00 0.0000000e+00 0.0000000e+00 
0.0000000e+00 0.0000000e+00 0.0000000e+00 
0.0000000e+00 0.0000000e+00 0.0000000e+00 
0.0000000e+00 0.0000000e+00 0.0000000e+00 
0.0000000e+00 0.0000000e+00 0.0000000e+00 
0.0000000e+00 0.0000000e+00 0.0000000e+00 
0.0000000e+00 0.0000000e+00 0.0000000e+00 
0.0000000e+00 0.0000000e+00 0.0000000e+00 
0.0000000e+00 0.0000000e+00 0.0000000e+00 
0.0000000e+00 0.0000000e+00 0.0000000e+00 
0.0000000e+00 0.0000000e+00 0.0000000e+00 
0.0000000e+00 0.0000000e+00 0.0000000e+00 
0.0000000e+00 0.0000000e+00 0.0000000e+00 
0.0000000e+00 0.0000000e+00 0.0000000e+00 
0.0000000e+00 0.0000000e+00 0.0000000e+00 
0.0000000e+00 0.0000000e+00 0.0000000e+00 
0.0000000e+00 0.0000000e+00 0.0000000e+00 
0.0000000e+00 0.0000000e+00 0.0000000e+00 
0.0000000e+00 0.0000000e+00 0.0000000e+00 
0.0000000e+00 0.0000000e+00 0.0000000e+00 
0.0000000e+00 0.0000000e+00 0.0000000e+00 
0.0000000e+00 0.0000000e+00 0.0000000e+00 
0.0000000e+00 0.0000000e+00 0.0000000e+00 
0.0000000e+00 0.0000000e+00 0.0000000e+00 
0.0000000e+00 0.0000000e+00 0.0000000e+00 
0.0000000e+00 0.0000000e+00 0.0000000e+00 
0.0000000e+00 0.0000000e+00 0.0000000e+00 
0.0000000e+00 0.0000000e+00 0.0000000e+00 
0.0000000e+00 0.0000000e+00 0.0000000e+00 
0.0000000e+00 0.0000000e+00 0.0000000e+00 
0.0000000e+00 0.0000000e+00 0.0000000e+00 
0.0000000e+00 0.0000000e+00 0.0000000e+00 
0.0000000e+00 0.0000000e+00 0.0000000e+00 
0.0000000e+00 0.0000000e+00 0.0000000e+00 
0.0000000e+00 0.0000000e+00 0.0000000e+00 
0.0000000e+00 0.0000000e+00 0.0000000e+00 
0.0000000e+00 0.0000000e+00 0.0000000e+00 
0.0000000e+00 0.0000000e+00 0.0000000e+00 
0.0000000e+00 0.0000000e+00 0.0000000e+00 
0.0000000e+00 0.0000000e+00 0.0000000e+00 
0.0000000e+00 0.0000000e+00 0.0000000e+00 
0.0000000e+00 0.0000000e+00 0.0000000e+00 
0.0000000e+00 0.0000000e+00 0.0000000e+00 
0.0000000e+00 0.0000000e+00 0.0000000e+00 
0.0000000e+00 0.0000000e+00 0.0000000e+00 
0.0000000e+00 0.0000000e+00 0.0000000e+00 
0.0000000e+00 0.0000000e+00 0.0000000e+00 
0.0000000e+00 0.0000000e+00 0.0000000e+00 
0.0000000e+00 0.0000000e+00 0.0000000e+00 
0.0000000e+00 0.0000000e+00 0.0000000e+00 
0.0000000e+00 0.0000000e+00 0.0000000e+00 
0.0000000e+00 0.0000000e+00 0.0000000e+00 
0.0000000e+00 0.0000000e+00 0.0000000e+00 
0.0000000e+00 0.0000000e+00 0.0000000e+00 
0.0000000e+00 0.0000000e+00 0.0000000e+00 
0.0000000e+00 0.0000000e+00 0.0000000e+00 
0.0000000e+00 0.0000000e+00 0.0000000e+00 
0.0000000e+00 0.0000000e+00 0.0000000e+00 
0.0000000e+00 0.0000000e+00 0.0000000e+00 
0.0000000e+00 0.0000000e+00 0.0000000e+00 
0.0000000e+00 0.0000000e+00 0.0000000e+00 
0.0000000e+00 0.0000000e+00 0.0000000e+00 
0.0000000e+00 0.0000000e+00 0.0000000e+00 
0.0000000e+00 0.0000000e+00 0.0000000e+00 
0.0000000e+00 0.0000000e+00 0.0000000e+00 
-2.8908686e-04 0.0000000e+00 1.2132926e-03 
0.0000000e+00 0.0000000e+00 0.0000000e+00 
-2.8908686e-04 0.0000000e+00 1.2132926e-03 
0.0000000e+00 0.0000000e+00 0.0000000e+00 
-5.7116966e-04 0.0000000e+00 2.4166315e-03 
0.0000000e+00 0.0000000e+00 0.0000000e+00 
-5.7116966e-04 0.0000000e+00 2.4166315e-03 
0.0000000e+00 0.0000000e+00 0.0000000e+00 
-8.5554537e-04 0.0000000e+00 3.6503362e-03 
0.0000000e+00 0.0000000e+00 0.0000000e+00 
-8.5554537e-04 0.0000000e+00 3.6503362e-03 
0.0000000e+00 0.0000000e+00 0.0000000e+00 
-1.1880332e-03 0.0000000e+00 5.1180785e-03 
0.0000000e+00 0.0000000e+00 0.0000000e+00 
-1.1880332e-03 0.0000000e+00 5.1180785e-03 
0.0000000e+00 0.0000000e+00 0.0000000e+00 
-1.5764620e-03 0.0000000e+00 6.8639060e-03 
0.0000000e+00 0.0000000e+00 0.0000000e+00 
0.0000000e+00 0.0000000e+00 0.0000000e+00 
-1.5764620e-03 0.0000000e+00 6.8639060e-03 
0.0000000e+00 0.0000000e+00 0.0000000e+00 
-2.1241562e-04 0.0000000e+00 7.9468874e-04 
-1.9765635e-03 0.0000000e+00 8.6960171e-03 
-2.1241562e-04 0.0000000e+00 7.9468874e-04 
-1.9765635e-03 0.0000000e+00 8.6960171e-03 
-4.2447508e-04 0.0000000e+00 1.6006150e-03 
-2.3654065e-03 0.0000000e+00 1.0511281e-02 
-4.2447508e-04 0.0000000e+00 1.6006150e-03 
-2.3654065e-03 0.0000000e+00 1.0511281e-02 
-6.3565614e-04 0.0000000e+00 2.4170735e-03 
-6.3565614e-04 0.0000000e+00 2.4170735e-03 
-2.7429556e-03 0.0000000e+00 1.2309462e-02 
-9.1696068e-04 0.0000000e+00 3.5240878e-03 
-2.7429556e-03 0.0000000e+00 1.2309462e-02 
-9.1696068e-04 0.0000000e+00 3.5240878e-03 
-3.1091771e-03 0.0000000e+00 1.4090313e-02 
-1.1984002e-03 0.0000000e+00 4.6526278e-03 
-3.1091771e-03 0.0000000e+00 1.4090313e-02 
-1.1984002e-03 0.0000000e+00 4.6526278e-03 
-3.4640405e-03 0.0000000e+00 1.5853584e-02 
-1.4790576e-03 0.0000000e+00 5.8015155e-03 
-3.4640405e-03 0.0000000e+00 1.5853584e-02 
-1.4790576e-03 0.0000000e+00 5.8015155e-03 
-3.8075186e-03 0.0000000e+00 1.7599029e-02 
-1.7581144e-03 0.0000000e+00 6.9697394e-03 
-3.8075186e-03 0.0000000e+00 1.7599029e-02 
-1.7581144e-03 0.0000000e+00 6.9697394e-03 
-2.0348238e-03 0.0000000e+00 8.1563948e-03 
-4.1395868e-03 0.0000000e+00 1.9326391e-02 
-2.0348238e-03 0.0000000e+00 8.1563948e-03 
-4.1395868e-03 0.0000000e+00 1.9326391e-02 
-2.3084997e-03 0.0000000e+00 9.3606737e-03 
-4.4602240e-03 0.0000000e+00 2.1035409e-02 
-2.3084997e-03 0.0000000e+00 9.3606737e-03 
-4.4602240e-03 0.0000000e+00 2.1035409e-02 
-2.5785184e-03 0.0000000e+00 1.0581905e-02 
-4.7694127e-03 0.0000000e+00 2.2725828e-02 
-2.5785184e-03 0.0000000e+00 1.0581905e-02 
-4.7694127e-03 0.0000000e+00 2.2725828e-02 
-2.8442943e-03 0.0000000e+00 1.1819480e-02 
-2.8442943e-03 0.0000000e+00 1.1819480e-02 
-5.0671385e-03 0.0000000e+00 2.4397378e-02 
-5.0671385e-03 0.0000000e+00 2.4397378e-02 
-3.1052839e-03 0.0000000e+00 1.3072893e-02 
-3.1052839e-03 0.0000000e+00 1.3072893e-02 
-5.3533913e-03 0.0000000e+00 2.6049794e-02 
-5.3533913e-03 0.0000000e+00 2.6049794e-02 
-3.3609764e-03 0.0000000e+00 1.4341729e-02 
-3.3609764e-03 0.0000000e+00 1.4341729e-02 
-5.6281646e-03 0.0000000e+00 2.7682803e-02 
-5.6281646e-03 0.0000000e+00 2.7682803e-02 
-3.6108875e-03 0.0000000e+00 1.5625659e-02 
-3.6108875e-03 0.0000000e+00 1.5625659e-02 
-5.8914559e-03 0.0000000e+00 2.9296132e-02 
-5.8914559e-03 0.0000000e+00 2.9296132e-02 
-3.8545548e-03 0.0000000e+00 1.6924439e-02 
-3.8545548e-03 0.0000000e+00 1.6924439e-02 
-6.1432672e-03 0.0000000e+00 3.0889504e-02 
-4.0915326e-03 0.0000000e+00 1.8237913e-02 
-6.1432672e-03 0.0000000e+00 3.0889504e-02 
-4.0915326e-03 0.0000000e+00 1.8237913e-02 
-6.3836048e-03 0.0000000e+00 3.2462638e-02 
-4.3213870e-03 0.0000000e+00 1.9566010e-02 
-6.3836048e-03 0.0000000e+00 3.2462638e-02 
-4.3213870e-03 0.0000000e+00 1.9566010e-02 
-6.6124793e-03 0.0000000e+00 3.4015251e-02 
-4.5436908e-03 0.0000000e+00 2.0908749e-02 
-6.6124793e-03 0.0000000e+00 3.4015251e-02 
-4.5436908e-03 0.0000000e+00 2.0908749e-02 
-4.7580194e-03 0.0000000e+00 2.2266242e-02 
-6.8299065e-03 0.0000000e+00 3.5547058e-02 
-4.7580194e-03 0.0000000e+00 2.2266242e-02 
-6.8299065e-03 0.0000000e+00 3.5547058e-02 
-4.9639451e-03 0.0000000e+00 2.3638704e-02 
-7.0359069e-03 0.0000000e+00 3.7057768e-02 
-4.9639451e-03 0.0000000e+00 2.3638704e-02 
-7.0359069e-03 0.0000000e+00 3.7057768e-02 
-5.1610326e-03 0.0000000e+00 2.5026465e-02 
-5.1610326e-03 0.0000000e+00 2.5026465e-02 
-7.2305061e-03 0.0000000e+00 3.8547093e-02 
-7.2305061e-03 0.0000000e+00 3.8547093e-02 
-5.3488293e-03 0.0000000e+00 2.6429921e-02 
-5.3488293e-03 0.0000000e+00 2.6429921e-02 
-7.4137350e-03 0.0000000e+00 4.0014738e-02 
-7.4137350e-03 0.0000000e+00 4.0014738e-02 
-5.5268631e-03 0.0000000e+00 2.7849629e-02 
-5.5268631e-03 0.0000000e+00 2.7849629e-02 
-7.5856303e-03 0.0000000e+00 4.1460409e-02 
-7.5856303e-03 0.0000000e+00 4.1460409e-02 
-5.6946326e-03 0.0000000e+00 2.9286291e-02 
-5.6946326e-03 0.0000000e+00 2.9286291e-02 
-7.7462330e-03 0.0000000e+00 4.2883802e-02 
-7.7462330e-03 0.0000000e+00 4.2883802e-02 
-5.8515961e-03 0.0000000e+00 3.0740728e-02 
-5.8515961e-03 0.0000000e+00 3.0740728e-02 
-7.8955922e-03 0.0000000e+00 4.4284628e-02 
-7.8955922e-03 0.0000000e+00 4.4284628e-02 
-5.9971628e-03 0.0000000e+00 3.2213919e-02 
-5.9971628e-03 0.0000000e+00 3.2213919e-02 
-8.0337612e-03 0.0000000e+00 4.5662579e-02 
-6.1306776e-03 0.0000000e+00 3.3707046e-02 
-8.0337612e-03 0.0000000e+00 4.5662579e-02 
-6.1306776e-03 0.0000000e+00 3.3707046e-02 
-6.2514042e-03 0.0000000e+00 3.5221525e-02 
-8.1607992e-03 0.0000000e+00 4.7017347e-02 
-6.2514042e-03 0.0000000e+00 3.5221525e-02 
-8.1607992e-03 0.0000000e+00 4.7017347e-02 
-6.3586369e-03 0.0000000e+00 3.6757227e-02 
-8.2767737e-03 0.0000000e+00 4.8348639e-02 
-6.3586369e-03 0.0000000e+00 3.6757227e-02 
-8.2767737e-03 0.0000000e+00 4.8348639e-02 
-6.4543739e-03 0.0000000e+00 3.8282652e-02 
-6.4543739e-03 0.0000000e+00 3.8282652e-02 
-8.3817570e-03 0.0000000e+00 4.9656145e-02 
-8.3817570e-03 0.0000000e+00 4.9656145e-02 
-6.5396418e-03 0.0000000e+00 3.9785209e-02 
-6.5396418e-03 0.0000000e+00 3.9785209e-02 
-8.4758280e-03 0.0000000e+00 5.0939551e-02 
-8.4758280e-03 0.0000000e+00 5.0939551e-02 
-6.6145171e-03 0.0000000e+00 4.1264599e-02 
-6.6145171e-03 0.0000000e+00 4.1264599e-02 
-8.5590737e-03 0.0000000e+00 5.2198562e-02 
-8.5590737e-03 0.0000000e+00 5.2198562e-02 
-6.6790841e-03 0.0000000e+00 4.2720543e-02 
-6.6790841e-03 0.0000000e+00 4.2720543e-02 
-8.6315871e-03 0.0000000e+00 5.3432866e-02 
-8.6315871e-03 0.0000000e+00 5.3432866e-02 
-6.7334324e-03 0.0000000e+00 4.4152740e-02 
-6.7334324e-03 0.0000000e+00 4.4152740e-02 
-8.6934682e-03 0.0000000e+00 5.4642148e-02 
-8.6934682e-03 0.0000000e+00 5.4642148e-02 
-6.7776593e-03 0.0000000e+00 4.5560914e-02 
-6.7776593e-03 0.0000000e+00 4.5560914e-02 
-8.7448252e-03 0.0000000e+00 5.5826113e-02 
-6.8118681e-03 0.0000000e+00 4.6944763e-02 
-8.7448252e-03 0.0000000e+00 5.5826113e-02 
-6.8118681e-03 0.0000000e+00 4.6944763e-02 
-6.8361691e-03 0.0000000e+00 4.8304004e-02 
-8.7857726e-03 0.0000000e+00 5.6984448e-02 
-6.8361691e-03 0.0000000e+00 4.8304004e-02 
-8.7857726e-03 0.0000000e+00 5.6984448e-02 
-6.8506803e-03 0.0000000e+00 4.9638353e-02 
-8.8164330e-03 0.0000000e+00 5.8116842e-02 
-6.8506803e-03 0.0000000e+00 4.9638353e-02 
-8.8164330e-03 0.0000000e+00 5.8116842e-02 
-6.8555259e-03 0.0000000e+00 5.0947515e-02 
-6.8555259e-03 0.0000000e+00 5.0947515e-02 
-8.8369367e-03 0.0000000e+00 5.9222997e-02 
-8.8369367e-03 0.0000000e+00 5.9222997e-02 
-6.8508377e-03 0.0000000e+00 5.2231213e-02 
-6.8508377e-03 0.0000000e+00 5.2231213e-02 
-8.8474215e-03 0.0000000e+00 6.0302607e-02 
-8.8474215e-03 0.0000000e+00 6.0302607e-02 
-6.8367549e-03 0.0000000e+00 5.3489152e-02 
-6.8367549e-03 0.0000000e+00 5.3489152e-02 
-8.8480332e-03 0.0000000e+00 6.1355365e-02 
-8.8480332e-03 0.0000000e+00 6.1355365e-02 
-6.8134236e-03 0.0000000e+00 5.4721062e-02 
-6.8134236e-03 0.0000000e+00 5.4721062e-02 
-8.8389253e-03 0.0000000e+00 6.2380976e-02 
-8.8389253e-03 0.0000000e+00 6.2380976e-02 
-6.7809981e-03 0.0000000e+00 5.5926652e-02 
-6.7809981e-03 0.0000000e+00 5.5926652e-02 
-8.8202595e-03 0.0000000e+00 6.3379142e-02 
-8.8202595e-03 0.0000000e+00 6.3379142e-02 
-6.7396394e-03 0.0000000e+00 5.7105650e-02 
-6.7396394e-03 0.0000000e+00 5.7105650e-02 
-8.7922058e-03 0.0000000e+00 6.4349561e-02 
-8.7922058e-03 0.0000000e+00 6.4349561e-02 
-6.6895164e-03 0.0000000e+00 5.8257785e-02 
-6.6895164e-03 0.0000000e+00 5.8257785e-02 
-8.7549415e-03 0.0000000e+00 6.5291948e-02 
-8.7549415e-03 0.0000000e+00 6.5291948e-02 
-6.6308057e-03 0.0000000e+00 5.9382778e-02 
-6.6308057e-03 0.0000000e+00 5.9382778e-02 
-8.7086530e-03 0.0000000e+00 6.6206013e-02 
-6.5636907e-03 0.0000000e+00 6.0480370e-02 
-8.7086530e-03 0.0000000e+00 6.6206013e-02 
-6.5636907e-03 0.0000000e+00 6.0480370e-02 
-8.6535343e-03 0.0000000e+00 6.7091466e-02 
-6.4883636e-03 0.0000000e+00 6.1550289e-02 
-8.6535343e-03 0.0000000e+00 6.7091466e-02 
-6.4883636e-03 0.0000000e+00 6.1550289e-02 
-6.4050228e-03 0.0000000e+00 6.2592284e-02 
-8.5897875e-03 0.0000000e+00 6.7948032e-02 
-6.4050228e-03 0.0000000e+00 6.2592284e-02 
-8.5897875e-03 0.0000000e+00 6.7948032e-02 
-6.3138753e-03 0.0000000e+00 6.3606093e-02 
-6.3138753e-03 0.0000000e+00 6.3606093e-02 
-8.5176231e-03 0.0000000e+00 6.8775433e-02 
-8.5176231e-03 0.0000000e+00 6.8775433e-02 
-6.2151349e-03 0.0000000e+00 6.4591470e-02 
-6.2151349e-03 0.0000000e+00 6.4591470e-02 
-8.4372599e-03 0.0000000e+00 6.9573394e-02 
-8.4372599e-03 0.0000000e+00 6.9573394e-02 
-6.1090226e-03 0.0000000e+00 6.5548174e-02 
-6.1090226e-03 0.0000000e+00 6.5548174e-02 
-8.3489238e-03 0.0000000e+00 7.0341657e-02 
-8.3489238e-03 0.0000000e+00 7.0341657e-02 
-5.9957677e-03 0.0000000e+00 6.6475963e-02 
-5.9957677e-03 0.0000000e+00 6.6475963e-02 
-8.2528497e-03 0.0000000e+00 7.1079956e-02 
-8.2528497e-03 0.0000000e+00 7.1079956e-02 
-5.8756054e-03 0.0000000e+00 6.7374607e-02 
-5.8756054e-03 0.0000000e+00 6.7374607e-02 
-8.1492805e-03 0.0000000e+00 7.1788038e-02 
-8.1492805e-03 0.0000000e+00 7.1788038e-02 
-5.7487793e-03 0.0000000e+00 6.8243879e-02 
-5.7487793e-03 0.0000000e+00 6.8243879e-02 
-8.0384654e-03 0.0000000e+00 7.2465660e-02 
-8.0384654e-03 0.0000000e+00 7.2465660e-02 
-5.6155385e-03 0.0000000e+00 6.9083564e-02 
-5.6155385e-03 0.0000000e+00 6.9083564e-02 
-7.9206627e-03 0.0000000e+00 7.3112580e-02 
-7.9206627e-03 0.0000000e+00 7.3112580e-02 
-5.4761405e-03 0.0000000e+00 6.9893446e-02 
-5.4761405e-03 0.0000000e+00 6.9893446e-02 
-7.7961383e-03 0.0000000e+00 7.3728563e-02 
-7.7961383e-03 0.0000000e+00 7.3728563e-02 
-5.3308481e-03 0.0000000e+00 7.0673325e-02 
-5.3308481e-03 0.0000000e+00 7.0673325e-02 
-7.6651638e-03 0.0000000e+00 7.4313390e-02 
-7.6651638e-03 0.0000000e+00 7.4313390e-02 
-5.1799306e-03 0.0000000e+00 7.1423006e-02 
-5.1799306e-03 0.0000000e+00 7.1423006e-02 
-7.5280196e-03 0.0000000e+00 7.4866840e-02 
-7.5280196e-03 0.0000000e+00 7.4866840e-02 
-5.0236648e-03 0.0000000e+00 7.2142301e-02 
-5.0236648e-03 0.0000000e+00 7.2142301e-02 
-7.3849928e-03 0.0000000e+00 7.5388707e-02 
-7.3849928e-03 0.0000000e+00 7.5388707e-02 
-4.8623315e-03 0.0000000e+00 7.2831032e-02 
-4.8623315e-03 0.0000000e+00 7.2831032e-02 
-7.2363759e-03 0.0000000e+00 7.5878795e-02 
-4.6962194e-03 0.0000000e+00 7.3489029e-02 
-7.2363759e-03 0.0000000e+00 7.5878795e-02 
-4.6962194e-03 0.0000000e+00 7.3489029e-02 
-4.5256204e-03 0.0000000e+00 7.4116133e-02 
-7.0824692e-03 0.0000000e+00 7.6336912e-02 
-4.5256204e-03 0.0000000e+00 7.4116133e-02 
-7.0824692e-03 0.0000000e+00 7.6336912e-02 
-4.3508341e-03 0.0000000e+00 7.4712193e-02 
-6.9235793e-03 0.0000000e+00 7.6762877e-02 
-4.3508341e-03 0.0000000e+00 7.4712193e-02 
-6.9235793e-03 0.0000000e+00 7.6762877e-02 
-4.1721627e-03 0.0000000e+00 7.5277069e-02 
-4.1721627e-03 0.0000000e+00 7.5277069e-02 
-6.7600171e-03 0.0000000e+00 7.7156526e-02 
-6.7600171e-03 0.0000000e+00 7.7156526e-02 
-3.9899136e-03 0.0000000e+00 7.5810632e-02 
-3.9899136e-03 0.0000000e+00 7.5810632e-02 
-6.5921011e-03 0.0000000e+00 7.7517696e-02 
-6.5921011e-03 0.0000000e+00 7.7517696e-02 
-3.8043999e-03 0.0000000e+00 7.6312761e-02 
-3.8043999e-03 0.0000000e+00 7.6312761e-02 
-6.4201529e-03 0.0000000e+00 7.7846241e-02 
-6.4201529e-03 0.0000000e+00 7.7846241e-02 
-3.6159362e-03 0.0000000e+00 7.6783347e-02 
-3.6159362e-03 0.0000000e+00 7.6783347e-02 
-6.2445008e-03 0.0000000e+00 7.8142024e-02 
-6.2445008e-03 0.0000000e+00 7.8142024e-02 
-3.4248432e-03 0.0000000e+00 7.7222293e-02 
-3.4248432e-03 0.0000000e+00 7.7222293e-02 
-6.0654776e-03 0.0000000e+00 7.8404918e-02 
-6.0654776e-03 0.0000000e+00 7.8404918e-02 
-3.2314423e-03 0.0000000e+00 7.7629510e-02 
-3.2314423e-03 0.0000000e+00 7.7629510e-02 
-5.8834183e-03 0.0000000e+00 7.8634810e-02 
-5.8834183e-03 0.0000000e+00 7.8634810e-02 
-3.0360603e-03 0.0000000e+00 7.8004924e-02 
-3.0360603e-03 0.0000000e+00 7.8004924e-02 
-5.6986636e-03 0.0000000e+00 7.8831597e-02 
-5.6986636e-03 0.0000000e+00 7.8831597e-02 
-2.8390235e-03 0.0000000e+00 7.8348471e-02 
-2.8390235e-03 0.0000000e+00 7.8348471e-02 
-5.5115580e-03 0.0000000e+00 7.8995189e-02 
-5.5115580e-03 0.0000000e+00 7.8995189e-02 
-2.6406634e-03 0.0000000e+00 7.8660096e-02 
-2.6406634e-03 0.0000000e+00 7.8660096e-02 
-5.3224462e-03 0.0000000e+00 7.9125508e-02 
-5.3224462e-03 0.0000000e+00 7.9125508e-02 
-2.4413108e-03 0.0000000e+00 7.8939760e-02 
-2.4413108e-03 0.0000000e+00 7.8939760e-02 
-5.1316782e-03 0.0000000e+00 7.9222488e-02 
-5.1316782e-03 0.0000000e+00 7.9222488e-02 
-2.2412978e-03 0.0000000e+00 7.9187433e-02 
-2.2412978e-03 0.0000000e+00 7.9187433e-02 
-4.9396057e-03 0.0000000e+00 7.9286075e-02 
-4.9396057e-03 0.0000000e+00 7.9286075e-02 
-2.0409593e-03 0.0000000e+00 7.9403099e-02 
-2.0409593e-03 0.0000000e+00 7.9403099e-02 
-4.7465801e-03 0.0000000e+00 7.9316230e-02 
-4.7465801e-03 0.0000000e+00 7.9316230e-02 
-1.8406280e-03 0.0000000e+00 7.9586749e-02 
-1.8406280e-03 0.0000000e+00 7.9586749e-02 
-4.5529561e-03 0.0000000e+00 7.9312924e-02 
-4.5529561e-03 0.0000000e+00 7.9312924e-02 
-1.6416112e-03 0.0000000e+00 7.9737655e-02 
-1.6416112e-03 0.0000000e+00 7.9737655e-02 
-4.3585109e-03 0.0000000e+00 7.9276032e-02 
-4.3585109e-03 0.0000000e+00 7.9276032e-02 
-1.4035973e-03 0.0000000e+00 7.9880541e-02 
-1.4035973e-03 0.0000000e+00 7.9880541e-02 
-4.1253106e-03 0.0000000e+00 7.9191468e-02 
-4.1253106e-03 0.0000000e+00 7.9191468e-02 
-1.1194259e-03 0.0000000e+00 8.0006206e-02 
-1.1194259e-03 0.0000000e+00 8.0006206e-02 
-3.8461434e-03 0.0000000e+00 7.9041654e-02 
-3.8461434e-03 0.0000000e+00 7.9041654e-02 
-7.8072263e-04 0.0000000e+00 8.0102116e-02 
-7.8072263e-04 0.0000000e+00 8.0102116e-02 
-3.5159555e-03 0.0000000e+00 7.8806328e-02 
-3.5159555e-03 0.0000000e+00 7.8806328e-02 
-4.2684467e-04 0.0000000e+00 8.0145441e-02 
-4.2684467e-04 0.0000000e+00 8.0145441e-02 
-3.1877815e-03 0.0000000e+00 7.8513688e-02 
-3.1877815e-03 0.0000000e+00 7.8513688e-02 
-7.6585599e-05 0.0000000e+00 8.0131144e-02 
-7.6585599e-05 0.0000000e+00 8.0131144e-02 
-2.8622249e-03 0.0000000e+00 7.8163818e-02 
-2.8622249e-03 0.0000000e+00 7.8163818e-02 
2.6946493e-04 0.0000000e+00 8.0059363e-02 
2.6946493e-04 0.0000000e+00 8.0059363e-02 
-2.5398860e-03 0.0000000e+00 7.7756821e-02 
-2.5398860e-03 0.0000000e+00 7.7756821e-02 
6.1072275e-04 0.0000000e+00 7.9930257e-02 
6.1072275e-04 0.0000000e+00 7.9930257e-02 
-2.2213600e-03 0.0000000e+00 7.7292824e-02 
-2.2213600e-03 0.0000000e+00 7.7292824e-02 
9.4660916e-04 0.0000000e+00 7.9744003e-02 
9.4660916e-04 0.0000000e+00 7.9744003e-02 
-1.9072397e-03 0.0000000e+00 7.6771975e-02 
-1.9072397e-03 0.0000000e+00 7.6771975e-02 
1.2765523e-03 0.0000000e+00 7.9500803e-02 
1.2765523e-03 0.0000000e+00 7.9500803e-02 
-1.5981102e-03 0.0000000e+00 7.6194441e-02 
-1.5981102e-03 0.0000000e+00 7.6194441e-02 
1.5999870e-03 0.0000000e+00 7.9200870e-02 