# vtk DataFile Version 4.0
vtk output
ASCII
DATASET UNSTRUCTURED_GRID
POINTS 824 float
-6.4148600e-05 1.0000000e-02 -4.4525366e-03 
-1.0680180e-04 1.0000000e-02 -2.8088474e-03 
3.4513260e-04 1.0000000e-02 -6.0450544e-03 
1.3803532e-03 1.0000000e-02 -7.3230534e-03 
6.5829700e-05 1.0000000e-02 -1.1736922e-03 
2.7142144e-03 1.0000000e-02 -8.2851896e-03 
5.0392030e-04 1.0000000e-02 6.5784910e-04 
4.1780764e-03 1.0000000e-02 -9.0342357e-03 
1.1628646e-03 1.0000000e-02 2.4220088e-03 
5.7070961e-03 1.0000000e-02 -9.6390187e-03 
2.0046218e-03 1.0000000e-02 4.1066196e-03 
7.2731595e-03 1.0000000e-02 -1.0140047e-02 
-6.4148600e-05 0.0000000e+00 -4.4525366e-03 
-1.0680180e-04 0.0000000e+00 -2.8088474e-03 
3.4513260e-04 0.0000000e+00 -6.0450544e-03 
1.3803532e-03 0.0000000e+00 -7.3230534e-03 
6.5829700e-05 0.0000000e+00 -1.1736922e-03 
2.9952540e-03 1.0000000e-02 5.7082181e-03 
8.8622628e-03 1.0000000e-02 -1.0562311e-02 
2.7142144e-03 0.0000000e+00 -8.2851896e-03 
5.0392030e-04 0.0000000e+00 6.5784910e-04 
4.1780764e-03 0.0000000e+00 -9.0342357e-03 
1.1628646e-03 0.0000000e+00 2.4220088e-03 
1.0466628e-02 1.0000000e-02 -1.0922252e-02 
4.1067238e-03 1.0000000e-02 7.2284501e-03 
5.7070961e-03 0.0000000e+00 -9.6390187e-03 
2.0046218e-03 0.0000000e+00 4.1066196e-03 
7.2731595e-03 0.0000000e+00 -1.0140047e-02 
1.2081579e-02 1.0000000e-02 -1.1231240e-02 
5.3166988e-03 1.0000000e-02 8.6715129e-03 
2.9952540e-03 0.0000000e+00 5.7082181e-03 
8.8622628e-03 0.0000000e+00 -1.0562311e-02 
1.3704120e-02 1.0000000e-02 -1.1497501e-02 
1.0466628e-02 0.0000000e+00 -1.0922252e-02 
4.1067238e-03 0.0000000e+00 7.2284501e-03 
6.6076374e-03 1.0000000e-02 1.0042624e-02 
1.5332244e-02 1.0000000e-02 -1.1727173e-02 
1.2081579e-02 0.0000000e+00 -1.1231240e-02 
5.3166988e-03 0.0000000e+00 8.6715129e-03 
7.9658343e-03 1.0000000e-02 1.1347144e-02 
1.3704120e-02 0.0000000e+00 -1.1497501e-02 
1.6964543e-02 1.0000000e-02 -1.1925002e-02 
6.6076374e-03 0.0000000e+00 1.0042624e-02 
9.3804686e-03 1.0000000e-02 1.2590236e-02 
1.5332244e-02 0.0000000e+00 -1.1727173e-02 
1.8600004e-02 1.0000000e-02 -1.2094716e-02 
7.9658343e-03 0.0000000e+00 1.1347144e-02 
1.6964543e-02 0.0000000e+00 -1.1925002e-02 
1.0843002e-02 1.0000000e-02 1.3776601e-02 
2.0237876e-02 1.0000000e-02 -1.2239318e-02 
9.3804686e-03 0.0000000e+00 1.2590236e-02 
1.8600004e-02 0.0000000e+00 -1.2094716e-02 
1.2346566e-02 1.0000000e-02 1.4910517e-02 
2.1877591e-02 1.0000000e-02 -1.2361246e-02 
1.0843002e-02 0.0000000e+00 1.3776601e-02 
2.0237876e-02 0.0000000e+00 -1.2239318e-02 
1.3885623e-02 1.0000000e-02 1.5995768e-02 
2.3518711e-02 1.0000000e-02 -1.2462540e-02 
1.2346566e-02 0.0000000e+00 1.4910517e-02 
2.1877591e-02 0.0000000e+00 -1.2361246e-02 
2.5160890e-02 1.0000000e-02 -1.2544903e-02 
1.5455654e-02 1.0000000e-02 1.7035707e-02 
1.3885623e-02 0.0000000e+00 1.5995768e-02 
2.3518711e-02 0.0000000e+00 -1.2462540e-02 
2.6803852e-02 1.0000000e-02 -1.2609772e-02 
1.7052912e-02 1.0000000e-02 1.8033321e-02 
2.5160890e-02 0.0000000e+00 -1.2544903e-02 
1.5455654e-02 0.0000000e+00 1.7035707e-02 
2.8447376e-02 1.0000000e-02 -1.2658389e-02 
2.6803852e-02 0.0000000e+00 -1.2609772e-02 
1.7052912e-02 0.0000000e+00 1.8033321e-02 
1.8674284e-02 1.0000000e-02 1.8991246e-02 
3.0091279e-02 1.0000000e-02 -1.2691814e-02 
2.8447376e-02 0.0000000e+00 -1.2658389e-02 
1.8674284e-02 0.0000000e+00 1.8991246e-02 
2.0317149e-02 1.0000000e-02 1.9911822e-02 
3.0091279e-02 0.0000000e+00 -1.2691814e-02 
3.1735410e-02 1.0000000e-02 -1.2710971e-02 
2.0317149e-02 0.0000000e+00 1.9911822e-02 
2.1979295e-02 1.0000000e-02 2.0797113e-02 
3.1735410e-02 0.0000000e+00 -1.2710971e-02 
3.3379643e-02 1.0000000e-02 -1.2716676e-02 
2.1979295e-02 0.0000000e+00 2.0797113e-02 
2.3658832e-02 1.0000000e-02 2.1648949e-02 
3.3379643e-02 0.0000000e+00 -1.2716676e-02 
3.5023871e-02 1.0000000e-02 -1.2709629e-02 
2.3658832e-02 0.0000000e+00 2.1648949e-02 
2.5354100e-02 1.0000000e-02 2.2469029e-02 
3.5023871e-02 0.0000000e+00 -1.2709629e-02 
3.6668001e-02 1.0000000e-02 -1.2690457e-02 
2.5354100e-02 0.0000000e+00 2.2469029e-02 
2.7063712e-02 1.0000000e-02 2.3258772e-02 
3.6668001e-02 0.0000000e+00 -1.2690457e-02 
3.8312016e-02 1.0000000e-02 -1.2663038e-02 
2.7063712e-02 0.0000000e+00 2.3258772e-02 
3.8312016e-02 0.0000000e+00 -1.2663038e-02 
2.8786417e-02 1.0000000e-02 2.4019532e-02 
3.9956032e-02 1.0000000e-02 -1.2635752e-02 
2.8786417e-02 0.0000000e+00 2.4019532e-02 
3.9956032e-02 0.0000000e+00 -1.2635752e-02 
3.0521135e-02 1.0000000e-02 2.4752486e-02 
4.1600048e-02 1.0000000e-02 -1.2608467e-02 
3.0521135e-02 0.0000000e+00 2.4752486e-02 
4.1600048e-02 0.0000000e+00 -1.2608467e-02 
3.2266919e-02 1.0000000e-02 2.5458676e-02 
4.3299814e-02 1.0000000e-02 -1.2580255e-02 
3.2266919e-02 0.0000000e+00 2.5458676e-02 
4.3299814e-02 0.0000000e+00 -1.2580255e-02 
3.4022902e-02 1.0000000e-02 2.6139111e-02 
4.5339533e-02 1.0000000e-02 -1.2546402e-02 
3.4022902e-02 0.0000000e+00 2.6139111e-02 
4.5339533e-02 0.0000000e+00 -1.2546402e-02 
3.5788340e-02 1.0000000e-02 2.6794623e-02 
4.7787196e-02 1.0000000e-02 -1.2505778e-02 
3.5788340e-02 0.0000000e+00 2.6794623e-02 
3.7562554e-02 1.0000000e-02 2.7425996e-02 
4.7787196e-02 0.0000000e+00 -1.2505778e-02 
3.7562554e-02 0.0000000e+00 2.7425996e-02 
3.9344928e-02 1.0000000e-02 2.8033950e-02 
5.0379113e-02 1.0000000e-02 -1.2462760e-02 
3.9344928e-02 0.0000000e+00 2.8033950e-02 
5.0379113e-02 0.0000000e+00 -1.2462760e-02 
4.1134916e-02 1.0000000e-02 2.8619109e-02 
5.2971029e-02 1.0000000e-02 -1.2419741e-02 
4.1134916e-02 0.0000000e+00 2.8619109e-02 
5.2971029e-02 0.0000000e+00 -1.2419741e-02 
4.2932026e-02 1.0000000e-02 2.9182016e-02 
4.2932026e-02 0.0000000e+00 2.9182016e-02 
5.5562946e-02 1.0000000e-02 -1.2376723e-02 
4.5339682e-02 1.0000000e-02 2.9899231e-02 
5.5562946e-02 0.0000000e+00 -1.2376723e-02 
4.5339682e-02 0.0000000e+00 2.9899231e-02 
5.8154863e-02 1.0000000e-02 -1.2333705e-02 
4.7758221e-02 1.0000000e-02 3.0578844e-02 
5.8154863e-02 0.0000000e+00 -1.2333705e-02 
4.7758221e-02 0.0000000e+00 3.0578844e-02 
6.0746779e-02 1.0000000e-02 -1.2290686e-02 
5.0186760e-02 1.0000000e-02 3.1221807e-02 
6.0746779e-02 0.0000000e+00 -1.2290686e-02 
5.0186760e-02 0.0000000e+00 3.1221807e-02 
6.3338696e-02 1.0000000e-02 -1.2247668e-02 
5.2624513e-02 1.0000000e-02 3.1828903e-02 
6.3338696e-02 0.0000000e+00 -1.2247668e-02 
5.2624513e-02 0.0000000e+00 3.1828903e-02 
5.5070762e-02 1.0000000e-02 3.2400804e-02 
6.5930613e-02 1.0000000e-02 -1.2204650e-02 
5.5070762e-02 0.0000000e+00 3.2400804e-02 
6.5930613e-02 0.0000000e+00 -1.2204650e-02 
5.7524847e-02 1.0000000e-02 3.2938082e-02 
6.8522529e-02 1.0000000e-02 -1.2161631e-02 
5.7524847e-02 0.0000000e+00 3.2938082e-02 
6.8522529e-02 0.0000000e+00 -1.2161631e-02 
5.9986169e-02 1.0000000e-02 3.3441170e-02 
7.1114446e-02 1.0000000e-02 -1.2118613e-02 
5.9986169e-02 0.0000000e+00 3.3441170e-02 
7.1114446e-02 0.0000000e+00 -1.2118613e-02 
6.2454163e-02 1.0000000e-02 3.3910436e-02 
6.2454163e-02 0.0000000e+00 3.3910436e-02 
7.3706362e-02 1.0000000e-02 -1.2075595e-02 
7.3706362e-02 0.0000000e+00 -1.2075595e-02 
6.4928303e-02 1.0000000e-02 3.4346139e-02 
6.4928303e-02 0.0000000e+00 3.4346139e-02 
7.6298279e-02 1.0000000e-02 -1.2032577e-02 
7.6298279e-02 0.0000000e+00 -1.2032577e-02 
6.7408092e-02 1.0000000e-02 3.4748446e-02 
6.7408092e-02 0.0000000e+00 3.4748446e-02 
7.8890196e-02 1.0000000e-02 -1.1989558e-02 
7.8890196e-02 0.0000000e+00 -1.1989558e-02 
6.9893057e-02 1.0000000e-02 3.5117436e-02 
6.9893057e-02 0.0000000e+00 3.5117436e-02 
8.1482112e-02 1.0000000e-02 -1.1946540e-02 
8.1482112e-02 0.0000000e+00 -1.1946540e-02 
7.2382742e-02 1.0000000e-02 3.5453098e-02 
7.2382742e-02 0.0000000e+00 3.5453098e-02 
8.4074029e-02 1.0000000e-02 -1.1903522e-02 
7.4876707e-02 1.0000000e-02 3.5755332e-02 
8.4074029e-02 0.0000000e+00 -1.1903522e-02 
7.4876707e-02 0.0000000e+00 3.5755332e-02 
8.6665946e-02 1.0000000e-02 -1.1860503e-02 
7.7374516e-02 1.0000000e-02 3.6023948e-02 
8.6665946e-02 0.0000000e+00 -1.1860503e-02 
7.7374516e-02 0.0000000e+00 3.6023948e-02 
8.9257862e-02 1.0000000e-02 -1.1817485e-02 
7.9875738e-02 1.0000000e-02 3.6258665e-02 
8.9257862e-02 0.0000000e+00 -1.1817485e-02 
7.9875738e-02 0.0000000e+00 3.6258665e-02 
8.2379940e-02 1.0000000e-02 3.6459105e-02 
9.1849779e-02 1.0000000e-02 -1.1774467e-02 
8.2379940e-02 0.0000000e+00 3.6459105e-02 
9.1849779e-02 0.0000000e+00 -1.1774467e-02 
8.4886681e-02 1.0000000e-02 3.6624786e-02 
9.4441696e-02 1.0000000e-02 -1.1731448e-02 
8.4886681e-02 0.0000000e+00 3.6624786e-02 
9.4441696e-02 0.0000000e+00 -1.1731448e-02 
8.7395510e-02 1.0000000e-02 3.6755108e-02 
8.7395510e-02 0.0000000e+00 3.6755108e-02 
9.7033612e-02 1.0000000e-02 -1.1688430e-02 
9.7033612e-02 0.0000000e+00 -1.1688430e-02 
8.9905951e-02 1.0000000e-02 3.6849401e-02 
8.9905951e-02 0.0000000e+00 3.6849401e-02 
9.9625529e-02 1.0000000e-02 -1.1645412e-02 
9.9625529e-02 0.0000000e+00 -1.1645412e-02 
9.2417505e-02 1.0000000e-02 3.6906832e-02 
9.2417505e-02 0.0000000e+00 3.6906832e-02 
1.0221745e-01 1.0000000e-02 -1.1602393e-02 
1.0221745e-01 0.0000000e+00 -1.1602393e-02 
9.4929640e-02 1.0000000e-02 3.6926425e-02 
9.4929640e-02 0.0000000e+00 3.6926425e-02 
1.0480936e-01 1.0000000e-02 -1.1559375e-02 
1.0480936e-01 0.0000000e+00 -1.1559375e-02 
9.7441776e-02 1.0000000e-02 3.6907077e-02 
9.7441776e-02 0.0000000e+00 3.6907077e-02 
1.0740128e-01 1.0000000e-02 -1.1516357e-02 
1.0740128e-01 0.0000000e+00 -1.1516357e-02 
9.9953281e-02 1.0000000e-02 3.6847529e-02 
9.9953281e-02 0.0000000e+00 3.6847529e-02 
1.0999320e-01 1.0000000e-02 -1.1473339e-02 
1.0246345e-01 1.0000000e-02 3.6746314e-02 
1.0999320e-01 0.0000000e+00 -1.1473339e-02 
1.0246345e-01 0.0000000e+00 3.6746314e-02 
1.0497150e-01 1.0000000e-02 3.6601738e-02 
1.1258511e-01 1.0000000e-02 -1.1430320e-02 
1.0497150e-01 0.0000000e+00 3.6601738e-02 
1.1258511e-01 0.0000000e+00 -1.1430320e-02 
1.0747666e-01 1.0000000e-02 3.6413638e-02 
1.1517703e-01 1.0000000e-02 -1.1387302e-02 
1.0747666e-01 0.0000000e+00 3.6413638e-02 
[...]
POINT_DATA 824
FIELD FieldData 2
DISPLACEMENT 3 824  float
0.0000000e+00 0.0000000e+00 0.0000000e+00 
0.0000000e+00 0.0000000e+00 0.0000000e+00 
0.0000000e+00 0.0000000e+00 0.0000000e+00 
0.0000000e+00 0.0000000e+00 0.0000000e+00 
0.0000000e+00 0.0000000e+00 0.0000000e+00 
0.0000000e+00 0.0000000e+00 0.0000000e+00 
0.0000000e+00 0.0000000e+00 0.0000000e+00 
0.0000000e+00 0.0000000e+00 0.0000000e+00 
0.0000000e+00 0.0000000e+00 0.0000000e+00 
0.0000000e+00 0.0000000e+00 0.0000000e+00 
0.0000000e+00 0.0000000e+00 0.0000000e+00 
0.0000000e+00 0.0000000e+00 0.0000000e+00 
0.0000000e+00 0.0000000e+00 0.0000000e+00 
0.0000000e+00 0.0000000e+00 0.0000000e+00 
0.0000000e+00 0.0000000e+00 0.0000000e+00 
0.0000000e+00 0.0000000e+00 0.0000000e+00 
0.0000000e+00 0.0000000e+00 0.0000000e+00 
0.0000000e+00 0.0000000e+00 0.0000000e+00 
0.0000000e+00 0.0000000e+00 0.0000000e+00 
0.0000000e+00 0.0000000e+00 0.0000000e+00 
0.0000000e+00 0.0000000e+00 0.0000000e+00 
0.0000000e+00 0.0000000e+00 0.0000000e+00 
0.0000000e+00 0.0000000e+00 0.0000000e+00 
0.0000000e+00 0.0000000e+00 0.0000000e+00 
0.0000000e+00 0.0000000e+00 0.0000000e+00 
0.0000000e+00 0.0000000e+00 0.0000000e+00 
0.0000000e+00 0.0000000e+00 0.0000000e+00 
0.0000000e+00 0.0000000e+00 0.0000000e+00 
0.0000000e+00 0.0000000e+00 0.0000000e+00 
0.0000000e+00 0.0000000e+00 0.0000000e+00 
0.0000000e+00 0.0000000e+00 0.0000000e+00 
0.0000000e+00 0.0000000e+00 0.0000000e+00 
0.0000000e+00 0.0000000e+00 0.0000000e+00 
0.0000000e+00 0.0000000e+00 0.0000000e+00 
0.0000000e+00 0.0000000e+00 0.0000000e+00 
0.0000000e+00 0.0000000e+00 0.0000000e+00 
0.0000000e+00 0.0000000e+00 0.0000000e+00 
0.0000000e+00 0.0000000e+00 0.0000000e+00 
0.0000000e+00 0.0000000e+00 0.0000000e+00 
0.0000000e+00 0.0000000e+00 0.0000000e+00 
0.0000000e+00 0.0000000e+00 0.0000000e+00 
0.0000000e+00 0.0000000e+00 0.0000000e+00 
0.0000000e+00 0.0000000e+00 0.0000000e+00 
0.0000000e+00 0.0000000e+00 0.0000000e+00 
0.0000000e+00 0.0000000e+00 0.0000000e+00 
0.0000000e+00 0.0000000e+00 0.0000000e+00 
0.0000000e+00 0.0000000e+00 0.0000000e+00 
0.0000000e+00 0.0000000e+00 0.0000000e+00 
0.0000000e+00 0.0000000e+00 0.0000000e+00 
0.0000000e+00 0.0000000e+00 0.0000000e+00 
0.0000000e+00 0.0000000e+00 0.0000000e+00 
0.0000000e+00 0.0000000e+00 0.0000000e+00 
0.0000000e+00 0.0000000e+00 0.0000000e+00 
0.0000000e+00 0.0000000e+00 0.0000000e+00 
0.0000000e+00 0.0000000e+00 0.0000000e+00 
0.0000000e+00 0.0000000e+00 0.0000000e+00 
0.0000000e+00 0.0000000e+00 0.0000000e+00 
0.0000000e+00 0.0000000e+00 0.0000000e+00 
0.0000000e+00 0.0000000e+00 0.0000000e+00 
0.0000000e+00 0.0000000e+00 0.0000000e+00 
0.0000000e+00 0.0000000e+00 0.0000000e+00 
0.0000000e+00 0.0000000e+00 0.0000000e+00 
0.0000000e+00 0.0000000e+00 0.0000000e+00 
0.0000000e+00 0.0000000e+00 0.0000000e+00 
0.0000000e+00 0.0000000e+00 0.0000000e+00 
0.0000000e+00 0.0000000e+00 0.0000000e+00 
0.0000000e+00 0.0000000e+00 0.0000000e+00 
0.0000000e+00 0.0000000e+00 0.0000000e+00 
0.0000000e+00 0.0000000e+00 0.0000000e+00 
0.0000000e+00 0.0000000e+00 0.0000000e+00 
0.0000000e+00 0.0000000e+00 0.0000000e+00 
0.0000000e+00 0.0000000e+00 0.0000000e+00 
0.0000000e+00 0.0000000e+00 0.0000000e+00 
0.0000000e+00 0.0000000e+00 0.0000000e+00 
0.0000000e+00 0.0000000e+00 0.0000000e+00 
0.0000000e+00 0.0000000e+00 0.0000000e+00 
0.0000000e+00 0.0000000e+00 0.0000000e+00 
0.0000000e+00 0.0000000e+00 0.0000000e+00 
0.0000000e+00 0.0000000e+00 0.0000000e+00 
0.0000000e+00 0.0000000e+00 0.0000000e+00 
0.0000000e+00 0.0000000e+00 0.0000000e+00 
0.0000000e+00 0.0000000e+00 0.0000000e+00 
0.0000000e+00 0.0000000e+00 0.0000000e+00 
0.0000000e+00 0.0000000e+00 0.0000000e+00 
0.0000000e+00 0.0000000e+00 0.0000000e+00 
0.0000000e+00 0.0000000e+00 0.0000000e+00 
0.0000000e+00 0.0000000e+00 0.0000000e+00 
0.0000000e+00 0.0000000e+00 0.0000000e+00 
0.0000000e+00 0.0000000e+00 0.0000000e+00 
0.0000000e+00 0.0000000e+00 0.0000000e+00 
0.0000000e+00 0.0000000e+00 0.0000000e+00 
0.0000000e+00 0.0000000e+00 0.0000000e+00 
0.0000000e+00 0.0000000e+00 0.0000000e+00 
0.0000000e+00 0.0000000e+00 0.0000000e+00 
0.0000000e+00 0.0000000e+00 0.0000000e+00 
0.0000000e+00 0.0000000e+00 0.0000000e+00 
0.0000000e+00 0.0000000e+00 0.0000000e+00 
-7.3070042e-05 0.0000000e+00 5.7753261e-04 
0.0000000e+00 0.0000000e+00 0.0000000e+00 
-7.3070042e-05 0.0000000e+00 5.7753261e-04 
0.0000000e+00 0.0000000e+00 0.0000000e+00 
-1.4388809e-04 0.0000000e+00 1.1481045e-03 
0.0000000e+00 0.0000000e+00 0.0000000e+00 
-1.4388809e-04 0.0000000e+00 1.1481045e-03 
0.0000000e+00 0.0000000e+00 0.0000000e+00 
-2.1479831e-04 0.0000000e+00 1.7307951e-03 
0.0000000e+00 0.0000000e+00 0.0000000e+00 
-2.1479831e-04 0.0000000e+00 1.7307951e-03 
0.0000000e+00 0.0000000e+00 0.0000000e+00 
-2.9714276e-04 0.0000000e+00 2.4213152e-03 
0.0000000e+00 0.0000000e+00 0.0000000e+00 
-2.9714276e-04 0.0000000e+00 2.4213152e-03 
0.0000000e+00 0.0000000e+00 0.0000000e+00 
-3.9268719e-04 0.0000000e+00 3.2394437e-03 
0.0000000e+00 0.0000000e+00 0.0000000e+00 
0.0000000e+00 0.0000000e+00 0.0000000e+00 
-3.9268719e-04 0.0000000e+00 3.2394437e-03 
0.0000000e+00 0.0000000e+00 0.0000000e+00 
2.9725653e-06 0.0000000e+00 1.5417460e-04 
-4.9043174e-04 0.0000000e+00 4.0946300e-03 
2.9725653e-06 0.0000000e+00 1.5417460e-04 
-4.9043174e-04 0.0000000e+00 4.0946300e-03 
1.6474841e-06 0.0000000e+00 3.2181102e-04 
-5.8477662e-04 0.0000000e+00 4.9386105e-03 
1.6474841e-06 0.0000000e+00 3.2181102e-04 
-5.8477662e-04 0.0000000e+00 4.9386105e-03 
-3.5101386e-06 0.0000000e+00 5.0231525e-04 
-3.5101386e-06 0.0000000e+00 5.0231525e-04 
-6.7575374e-04 0.0000000e+00 5.7713428e-03 
-1.6337308e-05 0.0000000e+00 7.6422987e-04 
-6.7575374e-04 0.0000000e+00 5.7713428e-03 
-1.6337308e-05 0.0000000e+00 7.6422987e-04 
-7.6339535e-04 0.0000000e+00 6.5927811e-03 
-3.5732347e-05 0.0000000e+00 1.0510932e-03 
-7.6339535e-04 0.0000000e+00 6.5927811e-03 
-3.5732347e-05 0.0000000e+00 1.0510932e-03 
-8.4773426e-04 0.0000000e+00 7.4028795e-03 
-6.0850333e-05 0.0000000e+00 1.3618864e-03 
-8.4773426e-04 0.0000000e+00 7.4028795e-03 
-6.0850333e-05 0.0000000e+00 1.3618864e-03 
-9.2880395e-04 0.0000000e+00 8.2015967e-03 
-9.0943225e-05 0.0000000e+00 1.6957600e-03 
-9.2880395e-04 0.0000000e+00 8.2015967e-03 
-9.0943225e-05 0.0000000e+00 1.6957600e-03 
-1.2533308e-04 0.0000000e+00 2.0519758e-03 
-1.0066383e-03 0.0000000e+00 8.9888876e-03 
-1.2533308e-04 0.0000000e+00 2.0519758e-03 
-1.0066383e-03 0.0000000e+00 8.9888876e-03 
-1.6340113e-04 0.0000000e+00 2.4298957e-03 
-1.0812717e-03 0.0000000e+00 9.7647075e-03 
-1.6340113e-04 0.0000000e+00 2.4298957e-03 
-1.0812717e-03 0.0000000e+00 9.7647075e-03 
-2.0458850e-04 0.0000000e+00 2.8290218e-03 
-1.1527392e-03 0.0000000e+00 1.0529016e-02 
-2.0458850e-04 0.0000000e+00 2.8290218e-03 
-1.1527392e-03 0.0000000e+00 1.0529016e-02 
-2.4837273e-04 0.0000000e+00 3.2489209e-03 
-2.4837273e-04 0.0000000e+00 3.2489209e-03 
-1.2210762e-03 0.0000000e+00 1.1281769e-02 
-1.2210762e-03 0.0000000e+00 1.1281769e-02 
-2.9427120e-04 0.0000000e+00 3.6892694e-03 
-2.9427120e-04 0.0000000e+00 3.6892694e-03 
-1.2863190e-03 0.0000000e+00 1.2022924e-02 
-1.2863190e-03 0.0000000e+00 1.2022924e-02 
-3.4183151e-04 0.0000000e+00 4.1498361e-03 
-3.4183151e-04 0.0000000e+00 4.1498361e-03 
-1.3485038e-03 0.0000000e+00 1.2752438e-02 
-1.3485038e-03 0.0000000e+00 1.2752438e-02 
-3.9062540e-04 0.0000000e+00 4.6304784e-03 
-3.9062540e-04 0.0000000e+00 4.6304784e-03 
-1.4076680e-03 0.0000000e+00 1.3470272e-02 
-1.4076680e-03 0.0000000e+00 1.3470272e-02 
-4.4024374e-04 0.0000000e+00 5.1311439e-03 
-4.4024374e-04 0.0000000e+00 5.1311439e-03 
-1.4638490e-03 0.0000000e+00 1.4176384e-02 
-4.9029137e-04 0.0000000e+00 5.6518706e-03 
-1.4638490e-03 0.0000000e+00 1.4176384e-02 
-4.9029137e-04 0.0000000e+00 5.6518706e-03 
-1.5170851e-03 0.0000000e+00 1.4870731e-02 
-5.4038181e-04 0.0000000e+00 6.1927859e-03 
-1.5170851e-03 0.0000000e+00 1.4870731e-02 
-5.4038181e-04 0.0000000e+00 6.1927859e-03 
-1.5674148e-03 0.0000000e+00 1.5553275e-02 
-5.9013248e-04 0.0000000e+00 6.7541095e-03 
-1.5674148e-03 0.0000000e+00 1.5553275e-02 
-5.9013248e-04 0.0000000e+00 6.7541095e-03 
-6.3915979e-04 0.0000000e+00 7.3361583e-03 
-1.6148773e-03 0.0000000e+00 1.6223976e-02 
-6.3915979e-04 0.0000000e+00 7.3361583e-03 
-1.6148773e-03 0.0000000e+00 1.6223976e-02 
-6.8707396e-04 0.0000000e+00 7.9393540e-03 
-1.6595122e-03 0.0000000e+00 1.6882794e-02 
-6.8707396e-04 0.0000000e+00 7.9393540e-03 
-1.6595122e-03 0.0000000e+00 1.6882794e-02 
-7.3347361e-04 0.0000000e+00 8.5642373e-03 
-7.3347361e-04 0.0000000e+00 8.5642373e-03 
-1.7013598e-03 0.0000000e+00 1.7529689e-02 
-1.7013598e-03 0.0000000e+00 1.7529689e-02 
-7.7793657e-04 0.0000000e+00 9.2114189e-03 
-7.7793657e-04 0.0000000e+00 9.2114189e-03 
-1.7404608e-03 0.0000000e+00 1.8164625e-02 
-1.7404608e-03 0.0000000e+00 1.8164625e-02 
-8.2001741e-04 0.0000000e+00 9.8816732e-03 
-8.2001741e-04 0.0000000e+00 9.8816732e-03 
-1.7768562e-03 0.0000000e+00 1.8787562e-02 
-1.7768562e-03 0.0000000e+00 1.8787562e-02 
-8.5923674e-04 0.0000000e+00 1.0575919e-02 
-8.5923674e-04 0.0000000e+00 1.0575919e-02 
-1.8105877e-03 0.0000000e+00 1.9398461e-02 
-1.8105877e-03 0.0000000e+00 1.9398461e-02 
-8.9507128e-04 0.0000000e+00 1.1295202e-02 
-8.9507128e-04 0.0000000e+00 1.1295202e-02 
-1.8416975e-03 0.0000000e+00 1.9997289e-02 
-1.8416975e-03 0.0000000e+00 1.9997289e-02 
-9.2694367e-04 0.0000000e+00 1.2040726e-02 
-9.2694367e-04 0.0000000e+00 1.2040726e-02 
-1.8702284e-03 0.0000000e+00 2.0584008e-02 
-9.5420803e-04 0.0000000e+00 1.2813900e-02 
-1.8702284e-03 0.0000000e+00 2.0584008e-02 
-9.5420803e-04 0.0000000e+00 1.2813900e-02 
-9.7613214e-04 0.0000000e+00 1.3616368e-02 
-1.8962231e-03 0.0000000e+00 2.1158577e-02 
-9.7613214e-04 0.0000000e+00 1.3616368e-02 
-1.8962231e-03 0.0000000e+00 2.1158577e-02 
-9.9200992e-04 0.0000000e+00 1.4448235e-02 
-1.9197257e-03 0.0000000e+00 2.1720968e-02 
-9.9200992e-04 0.0000000e+00 1.4448235e-02 
-1.9197257e-03 0.0000000e+00 2.1720968e-02 
-1.0038341e-03 0.0000000e+00 1.5278236e-02 
-1.0038341e-03 0.0000000e+00 1.5278236e-02 
-1.9407799e-03 0.0000000e+00 2.2271143e-02 
-1.9407799e-03 0.0000000e+00 2.2271143e-02 
-1.0126196e-03 0.0000000e+00 1.6094012e-02 
-1.0126196e-03 0.0000000e+00 1.6094012e-02 
-1.9594304e-03 0.0000000e+00 2.2809063e-02 
-1.9594304e-03 0.0000000e+00 2.2809063e-02 
-1.0184274e-03 0.0000000e+00 1.6895504e-02 
-1.0184274e-03 0.0000000e+00 1.6895504e-02 
-1.9757221e-03 0.0000000e+00 2.3334703e-02 
-1.9757221e-03 0.0000000e+00 2.3334703e-02 
-1.0213192e-03 0.0000000e+00 1.7682670e-02 
-1.0213192e-03 0.0000000e+00 1.7682670e-02 
-1.9897006e-03 0.0000000e+00 2.3848024e-02 
-1.9897006e-03 0.0000000e+00 2.3848024e-02 
-1.0213576e-03 0.0000000e+00 1.8455454e-02 
-1.0213576e-03 0.0000000e+00 1.8455454e-02 
-2.0014116e-03 0.0000000e+00 2.4348991e-02 
-2.0014116e-03 0.0000000e+00 2.4348991e-02 
-1.0186059e-03 0.0000000e+00 1.9213813e-02 
-1.0186059e-03 0.0000000e+00 1.9213813e-02 
-2.0109015e-03 0.0000000e+00 2.4837579e-02 
-1.0131284e-03 0.0000000e+00 1.9957693e-02 
-2.0109015e-03 0.0000000e+00 2.4837579e-02 
-1.0131284e-03 0.0000000e+00 1.9957693e-02 
-1.0049897e-03 0.0000000e+00 2.0687054e-02 
-2.0182171e-03 0.0000000e+00 2.5313753e-02 
-1.0049897e-03 0.0000000e+00 2.0687054e-02 
-2.0182171e-03 0.0000000e+00 2.5313753e-02 
-9.9425568e-04 0.0000000e+00 2.1401848e-02 
-2.0234056e-03 0.0000000e+00 2.5777479e-02 
-9.9425568e-04 0.0000000e+00 2.1401848e-02 
-2.0234056e-03 0.0000000e+00 2.5777479e-02 
-9.8099265e-04 0.0000000e+00 2.2102029e-02 
-9.8099265e-04 0.0000000e+00 2.2102029e-02 
-2.0265146e-03 0.0000000e+00 2.6228731e-02 
-2.0265146e-03 0.0000000e+00 2.6228731e-02 
-9.6526764e-04 0.0000000e+00 2.2787559e-02 
-9.6526764e-04 0.0000000e+00 2.2787559e-02 
-2.0275921e-03 0.0000000e+00 2.6667480e-02 
-2.0275921e-03 0.0000000e+00 2.6667480e-02 
-9.4714862e-04 0.0000000e+00 2.3458388e-02 
-9.4714862e-04 0.0000000e+00 2.3458388e-02 
-2.0266865e-03 0.0000000e+00 2.7093692e-02 
-2.0266865e-03 0.0000000e+00 2.7093692e-02 
-9.2670393e-04 0.0000000e+00 2.4114483e-02 
-9.2670393e-04 0.0000000e+00 2.4114483e-02 
-2.0238467e-03 0.0000000e+00 2.7507342e-02 
-2.0238467e-03 0.0000000e+00 2.7507342e-02 
-9.0400297e-04 0.0000000e+00 2.4755796e-02 
-9.0400297e-04 0.0000000e+00 2.4755796e-02 
-2.0191218e-03 0.0000000e+00 2.7908404e-02 
-2.0191218e-03 0.0000000e+00 2.7908404e-02 
-8.7911540e-04 0.0000000e+00 2.5382294e-02 
-8.7911540e-04 0.0000000e+00 2.5382294e-02 
-2.0125616e-03 0.0000000e+00 2.8296847e-02 
-2.0125616e-03 0.0000000e+00 2.8296847e-02 
-8.5211185e-04 0.0000000e+00 2.5993938e-02 
-8.5211185e-04 0.0000000e+00 2.5993938e-02 
-2.0042159e-03 0.0000000e+00 2.8672648e-02 
-2.0042159e-03 0.0000000e+00 2.8672648e-02 
-8.2306345e-04 0.0000000e+00 2.6590689e-02 
-8.2306345e-04 0.0000000e+00 2.6590689e-02 
-1.9941351e-03 0.0000000e+00 2.9035780e-02 
-7.9204175e-04 0.0000000e+00 2.7172516e-02 
-1.9941351e-03 0.0000000e+00 2.9035780e-02 
-7.9204175e-04 0.0000000e+00 2.7172516e-02 
-1.9823699e-03 0.0000000e+00 2.9386217e-02 
-7.5911938e-04 0.0000000e+00 2.7739380e-02 
-1.9823699e-03 0.0000000e+00 2.9386217e-02 
-7.5911938e-04 0.0000000e+00 2.7739380e-02 
-7.2436893e-04 0.0000000e+00 2.8291252e-02 
-1.9689712e-03 0.0000000e+00 2.9723938e-02 
-7.2436893e-04 0.0000000e+00 2.8291252e-02 
-1.9689712e-03 0.0000000e+00 2.9723938e-02 
-6.8786417e-04 0.0000000e+00 2.8828097e-02 
-6.8786417e-04 0.0000000e+00 2.8828097e-02 
-1.9539905e-03 0.0000000e+00 3.0048915e-02 
-1.9539905e-03 0.0000000e+00 3.0048915e-02 
-6.4967886e-04 0.0000000e+00 2.9349887e-02 
-6.4967886e-04 0.0000000e+00 2.9349887e-02 
-1.9374796e-03 0.0000000e+00 3.0361129e-02 
-1.9374796e-03 0.0000000e+00 3.0361129e-02 
-6.0988756e-04 0.0000000e+00 2.9856592e-02 
-6.0988756e-04 0.0000000e+00 2.9856592e-02 
-1.9194903e-03 0.0000000e+00 3.0660557e-02 
-1.9194903e-03 0.0000000e+00 3.0660557e-02 
-5.6856531e-04 0.0000000e+00 3.0348185e-02 
-5.6856531e-04 0.0000000e+00 3.0348185e-02 
-1.9000750e-03 0.0000000e+00 3.0947176e-02 
-1.9000750e-03 0.0000000e+00 3.0947176e-02 
-5.2578752e-04 0.0000000e+00 3.0824637e-02 
-5.2578752e-04 0.0000000e+00 3.0824637e-02 
-1.8792865e-03 0.0000000e+00 3.1220967e-02 
-1.8792865e-03 0.0000000e+00 3.1220967e-02 
-4.8163024e-04 0.0000000e+00 3.1285925e-02 
-4.8163024e-04 0.0000000e+00 3.1285925e-02 
-1.8571775e-03 0.0000000e+00 3.1481910e-02 
-1.8571775e-03 0.0000000e+00 3.1481910e-02 
-4.3616951e-04 0.0000000e+00 3.1732025e-02 
-4.3616951e-04 0.0000000e+00 3.1732025e-02 
-1.8338012e-03 0.0000000e+00 3.1729986e-02 
-1.8338012e-03 0.0000000e+00 3.1729986e-02 
-3.8948248e-04 0.0000000e+00 3.2162912e-02 
-3.8948248e-04 0.0000000e+00 3.2162912e-02 
-1.8092113e-03 0.0000000e+00 3.1965176e-02 
-1.8092113e-03 0.0000000e+00 3.1965176e-02 
-3.4164598e-04 0.0000000e+00 3.2578568e-02 
-3.4164598e-04 0.0000000e+00 3.2578568e-02 
-1.7834612e-03 0.0000000e+00 3.2187464e-02 
-1.7834612e-03 0.0000000e+00 3.2187464e-02 
-2.9273756e-04 0.0000000e+00 3.2978972e-02 
-2.9273756e-04 0.0000000e+00 3.2978972e-02 
-1.7566051e-03 0.0000000e+00 3.2396831e-02 
-1.7566051e-03 0.0000000e+00 3.2396831e-02 
-2.4283512e-04 0.0000000e+00 3.3364104e-02 
-2.4283512e-04 0.0000000e+00 3.3364104e-02 
-1.7286971e-03 0.0000000e+00 3.2593262e-02 
-1.7286971e-03 0.0000000e+00 3.2593262e-02 
-1.9201670e-04 0.0000000e+00 3.3733949e-02 
-1.9201670e-04 0.0000000e+00 3.3733949e-02 
-1.6997917e-03 0.0000000e+00 3.2776744e-02 
-1.4036085e-04 0.0000000e+00 3.4088490e-02 
-1.6997917e-03 0.0000000e+00 3.2776744e-02 
-1.4036085e-04 0.0000000e+00 3.4088490e-02 
-8.7946124e-05 0.0000000e+00 3.4427712e-02 
-1.6699434e-03 0.0000000e+00 3.2947260e-02 
-8.7946124e-05 0.0000000e+00 3.4427712e-02 
-1.6699434e-03 0.0000000e+00 3.2947260e-02 
-3.4851668e-05 0.0000000e+00 3.4751603e-02 
-1.6392072e-03 0.0000000e+00 3.3104796e-02 
-3.4851668e-05 0.0000000e+00 3.4751603e-02 
-1.6392072e-03 0.0000000e+00 3.3104796e-02 
1.8843598e-05 0.0000000e+00 3.5060152e-02 
1.8843598e-05 0.0000000e+00 3.5060152e-02 
-1.6076380e-03 0.0000000e+00 3.3249341e-02 
-1.6076380e-03 0.0000000e+00 3.3249341e-02 
7.3060326e-05 0.0000000e+00 3.5353349e-02 
7.3060326e-05 0.0000000e+00 3.5353349e-02 
-1.5752913e-03 0.0000000e+00 3.3380882e-02 
-1.5752913e-03 0.0000000e+00 3.3380882e-02 
1.2771887e-04 0.0000000e+00 3.5631184e-02 
1.2771887e-04 0.0000000e+00 3.5631184e-02 
-1.5422220e-03 0.0000000e+00 3.3499409e-02 
-1.5422220e-03 0.0000000e+00 3.3499409e-02 
1.8273974e-04 0.0000000e+00 3.5893651e-02 
1.8273974e-04 0.0000000e+00 3.5893651e-02 
-1.5084860e-03 0.0000000e+00 3.3604911e-02 
-1.5084860e-03 0.0000000e+00 3.3604911e-02 
2.3804303e-04 0.0000000e+00 3.6140743e-02 
2.3804303e-04 0.0000000e+00 3.6140743e-02 
-1.4741390e-03 0.0000000e+00 3.3697378e-02 
-1.4741390e-03 0.0000000e+00 3.3697378e-02 
2.9354903e-04 0.0000000e+00 3.6372456e-02 
2.9354903e-04 0.0000000e+00 3.6372456e-02 
-1.4392366e-03 0.0000000e+00 3.3776802e-02 
-1.4392366e-03 0.0000000e+00 3.3776802e-02 
3.4917760e-04 0.0000000e+00 3.6588788e-02 
3.4917760e-04 0.0000000e+00 3.6588788e-02 
-1.4038348e-03 0.0000000e+00 3.3843175e-02 
-1.4038348e-03 0.0000000e+00 3.3843175e-02 
4.0484919e-04 0.0000000e+00 3.6789737e-02 
4.0484919e-04 0.0000000e+00 3.6789737e-02 
-1.3679898e-03 0.0000000e+00 3.3896489e-02 
-1.3679898e-03 0.0000000e+00 3.3896489e-02 
4.6048334e-04 0.0000000e+00 3.6975302e-02 
4.6048334e-04 0.0000000e+00 3.6975302e-02 
-1.3317576e-03 0.0000000e+00 3.3936739e-02 
-1.3317576e-03 0.0000000e+00 3.3936739e-02 
5.1600044e-04 0.0000000e+00 3.7145487e-02 
5.1600044e-04 0.0000000e+00 3.7145487e-02 
-1.2951944e-03 0.0000000e+00 3.3963920e-02 
-1.2951944e-03 0.0000000e+00 3.3963920e-02 
5.7132055e-04 0.0000000e+00 3.7300291e-02 
5.7132055e-04 0.0000000e+00 3.7300291e-02 
-1.2583568e-03 0.0000000e+00 3.3978026e-02 
-1.2583568e-03 0.0000000e+00 3.3978026e-02 
6.2636367e-04 0.0000000e+00 3.7439721e-02 
6.2636367e-04 0.0000000e+00 3.7439721e-02 
-1.2213007e-03 0.0000000e+00 3.3979054e-02 
-1.2213007e-03 0.0000000e+00 3.3979054e-02 
6.8105018e-04 0.0000000e+00 3.7563782e-02 
6.8105018e-04 0.0000000e+00 3.7563782e-02 
-1.1840828e-03 0.0000000e+00 3.3967002e-02 
-1.1840828e-03 0.0000000e+00 3.3967002e-02 
7.3503656e-04 0.0000000e+00 3.7671952e-02 
7.3503656e-04 0.0000000e+00 3.7671952e-02 
-1.1466482e-03 0.0000000e+00 3.3941792e-02 
-1.1466482e-03 0.0000000e+00 3.3941792e-02 
7.9920432e-04 0.0000000e+00 3.7783423e-02 
7.9920432e-04 0.0000000e+00 3.7783423e-02 
-1.1016678e-03 0.0000000e+00 3.3895793e-02 
-1.1016678e-03 0.0000000e+00 3.3895793e-02 
8.7535260e-04 0.0000000e+00 3.7895202e-02 
8.7535260e-04 0.0000000e+00 3.7895202e-02 
-1.0477022e-03 0.0000000e+00 3.3821696e-02 
-1.0477022e-03 0.0000000e+00 3.3821696e-02 
9.6557114e-04 0.0000000e+00 3.8002970e-02 
9.6557114e-04 0.0000000e+00 3.8002970e-02 
-9.8371133e-04 0.0000000e+00 3.3711238e-02 
-9.8371133e-04 0.0000000e+00 3.3711238e-02 
1.0592725e-03 0.0000000e+00 3.8088771e-02 
1.0592725e-03 0.0000000e+00 3.8088771e-02 
-9.1992715e-04 0.0000000e+00 3.3578337e-02 
-9.1992715e-04 0.0000000e+00 3.3578337e-02 
1.1514663e-03 0.0000000e+00 3.8146841e-02 
1.1514663e-03 0.0000000e+00 3.8146841e-02 
-8.5644644e-04 0.0000000e+00 3.3422996e-02 
-8.5644644e-04 0.0000000e+00 3.3422996e-02 
1.2420102e-03 0.0000000e+00 3.8177206e-02 
1.2420102e-03 0.0000000e+00 3.8177206e-02 
-7.9336596e-04 0.0000000e+00 3.3245221e-02 
-7.9336596e-04 0.0000000e+00 3.3245221e-02 
1.3307629e-03 0.0000000e+00 3.8179898e-02 
1.3307629e-03 0.0000000e+00 3.8179898e-02 
-7.3078221e-04 0.0000000e+00 3.3045019e-02 
-7.3078221e-04 0.0000000e+00 3.3045019e-02 
1.4175831e-03 0.0000000e+00 3.8154950e-02 
1.4175831e-03 0.0000000e+00 3.8154950e-02 
-6.6879205e-04 0.0000000e+00 3.2822398e-02 
-6.6879205e-04 0.0000000e+00 3.2822398e-02 
1.5023304e-03 0.0000000e+00 3.8102399e-02 
1.5023304e-03 0.0000000e+00 3.8102399e-02 
-6.0749174e-04 0.0000000e+00 3.2577367e-02 
-6.0749174e-04 0.0000000e+00 3.2577367e-02 
1.5848650e-03 0.0000000e+00 3.8022281e-02 
1.5848650e-03 0.0000000e+00 3.8022281e-02 